 31504,  9422, 31506,  9420, 31508,  9418, 31511,  9415, 31516,  9410, 31517,  9409, 31518,  9408, 31519,  9407
 31520,  9406, 31521,  9405, 31525,  9401, 31526,  9400, 31529,  9397, 31532,  9394, 31534,  9392, 31535,  9391
 31537,  9389, 31538,  9388, 31540,  9386, 31541,  9385, 31545,  9381, 31547,  9379, 31628,  9548, 31632,  9544
 31633,  9543, 31635,  9541, 31636,  9540, 31637,  9539, 31639,  9537, 31641,  9535, 31645,  9531, 31646,  9530
 31651,  9525, 31653,  9523, 31654,  9522, 31655,  9521, 31660,  9516, 31666,  9510, 31667,  9509, 31668,  9508
 31671,  9505, 31672,  9504, 31674,  9502, 31755,  9671, 31758,  9668, 31759,  9667, 31762,  9664, 31765,  9661
 31767,  9659, 31771,  9655, 31776,  9650, 31777,  9649, 31786,  9640, 31787,  9639, 31788,  9638, 31790,  9636
 31793,  9633, 31795,  9631, 31796,  9630, 31797,  9629, 31800,  9626, 31878,  9798, 31882,  9794, 31883,  9793
 31884,  9792, 31885,  9791, 31888,  9788, 31889,  9787, 31890,  9786, 31891,  9785, 31892,  9784, 31893,  9783
 31894,  9782, 31895,  9781, 31896,  9780, 31898,  9778, 31901,  9775, 31905,  9771, 31906,  9770, 31909,  9767
 31912,  9764, 31913,  9763, 31916,  9760, 31919,  9757, 32007,  9919, 32008,  9918, 32009,  9917, 32013,  9913
 32020,  9906, 32022,  9904, 32024,  9902, 32026,  9900, 32028,  9898, 32031,  9895, 32033,  9893, 32036,  9890
 32037,  9889, 32045,  9881, 32047,  9879, 32048,  9878, 32131, 10045, 32133, 10043, 32135, 10041, 32137, 10039
 32142, 10034, 32146, 10030, 32155, 10021, 32157, 10019, 32164, 10012, 32167, 10009, 32171, 10005, 32172, 10004
 32175, 10001, 32255, 10171, 32256, 10170, 32259, 10167, 32260, 10166, 32261, 10165, 32262, 10164, 32265, 10161
 32268, 10158, 32269, 10157, 32272, 10154, 32274, 10152, 32276, 10150, 32281, 10145, 32282, 10144, 32284, 10142
 32286, 10140, 32287, 10139, 32289, 10137, 32292, 10134, 32296, 10130, 32297, 10129, 32299, 10127, 32378, 10298
 32381, 10295, 32382, 10294, 32388, 10288, 32394, 10282, 32398, 10278, 32405, 10271, 32406, 10270, 32408, 10268
 32411, 10265, 32412, 10264, 32414, 10262, 32416, 10260, 32417, 10259, 32419, 10257, 32425, 10251, 32508, 10418
 32513, 10413, 32515, 10411, 32518, 10408, 32522, 10404, 32523, 10403, 32526, 10400, 32530, 10396, 32534, 10392
 32535, 10391, 32539, 10387, 32540, 10386, 32541, 10385, 32543, 10383, 32630, 10546, 32632, 10544, 32633, 10543
 32634, 10542, 32636, 10540, 32637, 10539, 32640, 10536, 32642, 10534, 32643, 10533, 32645, 10531, 32649, 10527
 32651, 10525, 32652, 10524, 32655, 10521, 32656, 10520, 32657, 10519, 32663, 10513, 32665, 10511, 32666, 10510
 32667, 10509, 32669, 10507, 32670, 10506, 32754, 10672, 32761, 10665, 32763, 10663, 32766, 10660, 32767, 10659
 32771, 10655, 32774, 10652, 32775, 10651, 32776, 10650, 32780, 10646, 32781, 10645, 32782, 10644, 32784, 10642
 32789, 10637, 32790, 10636, 32791, 10635, 32792, 10634, 32793, 10633, 32796, 10630, 32797, 10629, 32878, 10798
 32880, 10796, 32881, 10795, 32888, 10788, 32890, 10786, 32895, 10781, 32896, 10780, 32897, 10779, 32898, 10778
 32901, 10775, 32905, 10771, 32908, 10768, 32914, 10762, 32917, 10759, 32921, 10755, 32922, 10754, 32923, 10753
 32925, 10751, 33004, 10922, 33005, 10921, 33006, 10920, 33007, 10919, 33009, 10917, 33011, 10915, 33015, 10911
 33018, 10908, 33019, 10907, 33022, 10904, 33023, 10903, 33025, 10901, 33027, 10899, 33028, 10898, 33030, 10896
 33034, 10892, 33037, 10889, 33040, 10886, 33041, 10885, 33042, 10884, 33046, 10880, 33047, 10879, 33128, 11048
 33136, 11040, 33137, 11039, 33142, 11034, 33143, 11033, 33151, 11025, 33153, 11023, 33154, 11022, 33156, 11020
 33157, 11019, 33158, 11018, 33159, 11017, 33160, 11016, 33164, 11012, 33253, 11173, 33257, 11169, 33258, 11168
 33259, 11167, 33260, 11166, 33263, 11163, 33270, 11156, 33273, 11153, 33274, 11152, 33275, 11151, 33276, 11150
 33278, 11148, 33280, 11146, 33282, 11144, 33285, 11141, 33286, 11140, 33293, 11133, 33295, 11131, 33298, 11128
 33378, 11298, 33379, 11297, 33383, 11293, 33389, 11287, 33390, 11286, 33392, 11284, 33394, 11282, 33395, 11281
 33396, 11280, 33405, 11271, 33407, 11269, 33408, 11268, 33411, 11265, 33413, 11263, 33417, 11259, 33424, 11252
 33504, 11422, 33510, 11416, 33512, 11414, 33513, 11413, 33515, 11411, 33519, 11407, 33521, 11405, 33524, 11402
 33525, 11401, 33527, 11399, 33530, 11396, 33534, 11392, 33535, 11391, 33536, 11390, 33538, 11388, 33540, 11386
 33541, 11385, 33543, 11383, 33546, 11380, 33547, 11379, 33550, 11376, 33630, 11546, 33631, 11545, 33632, 11544
 33634, 11542, 33637, 11539, 33638, 11538, 33639, 11537, 33642, 11534, 33643, 11533, 33646, 11530, 33648, 11528
 33649, 11527, 33651, 11525, 33652, 11524, 33653, 11523, 33654, 11522, 33656, 11520, 33657, 11519, 33659, 11517
 33664, 11512, 33668, 11508, 33669, 11507, 33672, 11504, 33753, 11673, 33754, 11672, 33755, 11671, 33756, 11670
 33759, 11667, 33760, 11666, 33761, 11665, 33762, 11664, 33765, 11661, 33767, 11659, 33770, 11656, 33773, 11653
 33775, 11651, 33778, 11648, 33782, 11644, 33784, 11642, 33787, 11639, 33789, 11637, 33790, 11636, 33791, 11635
 33792, 11634, 33795, 11631, 33796, 11630, 33799, 11627, 33800, 11626, 33878, 11798, 33879, 11797, 33880, 11796
 33884, 11792, 33889, 11787, 33890, 11786, 33892, 11784, 33894, 11782, 33895, 11781, 33897, 11779, 33898, 11778
 33900, 11776, 33906, 11770, 33908, 11768, 33912, 11764, 33913, 11763, 33918, 11758, 33923, 11753, 34004, 11922
 34006, 11920, 34008, 11918, 34014, 11912, 34015, 11911, 34019, 11907, 34023, 11903, 34024, 11902, 34026, 11900
 34029, 11897, 34030, 11896, 34031, 11895, 34033, 11893, 34034, 11892, 34039, 11887, 34043, 11883, 34044, 11882
 34045, 11881, 34128, 12048, 34130, 12046, 34132, 12044, 34133, 12043, 34136, 12040, 34138, 12038, 34141, 12035
 34142, 12034, 34145, 12031, 34146, 12030, 34147, 12029, 34151, 12025, 34154, 12022, 34155, 12021, 34156, 12020
 34161, 12015, 34162, 12014, 34165, 12011, 34167, 12009, 34168, 12008, 34174, 12002, 34255, 12171, 34256, 12170
 34257, 12169, 34258, 12168, 34263, 12163, 34264, 12162, 34265, 12161, 34269, 12157, 34271, 12155, 34275, 12151
 34279, 12147, 34281, 12145, 34284, 12142, 34287, 12139, 34289, 12137, 34290, 12136, 34294, 12132, 34296, 12130
 34297, 12129, 34380, 12296, 34381, 12295, 34382, 12294, 34383, 12293, 34384, 12292, 34386, 12290, 34387, 12289
 34389, 12287, 34391, 12285, 34392, 12284, 34398, 12278, 34399, 12277, 34400, 12276, 34402, 12274, 34404, 12272
 34406, 12270, 34407, 12269, 34409, 12267, 34410, 12266, 34412, 12264, 34415, 12261, 34418, 12258, 34420, 12256
 34421, 12255, 34425, 12251, 34503, 12423, 34504, 12422, 34509, 12417, 34512, 12414, 34513, 12413, 34514, 12412
 34518, 12408, 34521, 12405, 34522, 12404, 34523, 12403, 34526, 12400, 34527, 12399, 34531, 12395, 34532, 12394
 34534, 12392, 34538, 12388, 34540, 12386, 34541, 12385, 34543, 12383, 34628, 12548, 34629, 12547, 34630, 12546
 34636, 12540, 34639, 12537, 34641, 12535, 34644, 12532, 34645, 12531, 34647, 12529, 34649, 12527, 34652, 12524
 34654, 12522, 34655, 12521, 34656, 12520, 34657, 12519, 34659, 12517, 34661, 12515, 34663, 12513, 34665, 12511
 34669, 12507, 34670, 12506, 34671, 12505, 34754, 12672, 34755, 12671, 34758, 12668, 34760, 12666, 34761, 12665
 34762, 12664, 34765, 12661, 34766, 12660, 34770, 12656, 34771, 12655, 34772, 12654, 34773, 12653, 34774, 12652
 34778, 12648, 34780, 12646, 34784, 12642, 34787, 12639, 34788, 12638, 34790, 12636, 34791, 12635, 34794, 12632
 34797, 12629, 34798, 12628, 34879, 12797, 34880, 12796, 34883, 12793, 34885, 12791, 34887, 12789, 34890, 12786
 34893, 12783, 34895, 12781, 34896, 12780, 34900, 12776, 34903, 12773, 34908, 12768, 34914, 12762, 34916, 12760
 34920, 12756, 34923, 12753, 35003, 12923, 35004, 12922, 35005, 12921, 35007, 12919, 35008, 12918, 35012, 12914
 35013, 12913, 35015, 12911, 35023, 12903, 35024, 12902, 35025, 12901, 35026, 12900, 35027, 12899, 35028, 12898
 35034, 12892, 35038, 12888, 35041, 12885, 35043, 12883, 35044, 12882, 35048, 12878, 35050, 12876, 35131, 13045
 35133, 13043, 35136, 13040, 35137, 13039, 35139, 13037, 35140, 13036, 35143, 13033, 35149, 13027, 35150, 13026
 35155, 13021, 35158, 13018, 35161, 13015, 35167, 13009, 35172, 13004, 35173, 13003, 35174, 13002, 35254, 13172
 35255, 13171, 35257, 13169, 35261, 13165, 35263, 13163, 35264, 13162, 35265, 13161, 35267, 13159, 35270, 13156
 35280, 13146, 35282, 13144, 35287, 13139, 35288, 13138, 35291, 13135, 35293, 13133, 35297, 13129, 35298, 13128
 35299, 13127, 35378, 13298, 35379, 13297, 35380, 13296, 35390, 13286, 35392, 13284, 35393, 13283, 35395, 13281
 35396, 13280, 35406, 13270, 35411, 13265, 35412, 13264, 35413, 13263, 35416, 13260, 35417, 13259, 35418, 13258
 35420, 13256, 35422, 13254, 35423, 13253, 35424, 13252, 35425, 13251, 35509, 13417, 35511, 13415, 35513, 13413
 35514, 13412, 35517, 13409, 35522, 13404, 35523, 13403, 35524, 13402, 35525, 13401, 35537, 13389, 35539, 13387
 35540, 13386, 35541, 13385, 35543, 13383, 35545, 13381, 35628, 13548, 35629, 13547, 35632, 13544, 35634, 13542
 35635, 13541, 35636, 13540, 35637, 13539, 35638, 13538, 35640, 13536, 35642, 13534, 35644, 13532, 35645, 13531
 35646, 13530, 35650, 13526, 35652, 13524, 35653, 13523, 35654, 13522, 35655, 13521, 35658, 13518, 35666, 13510
 35667, 13509, 35668, 13508, 35669, 13507, 35674, 13502, 35675, 13501, 35754, 13672, 35758, 13668, 35759, 13667
 35760, 13666, 35765, 13661, 35769, 13657, 35774, 13652, 35781, 13645, 35786, 13640, 35787, 13639, 35788, 13638
 35789, 13637, 35792, 13634, 35794, 13632, 35795, 13631, 35796, 13630, 35797, 13629, 35799, 13627, 35800, 13626
 35878, 13798, 35882, 13794, 35884, 13792, 35886, 13790, 35887, 13789, 35891, 13785, 35896, 13780, 35898, 13778
 35899, 13777, 35902, 13774, 35904, 13772, 35905, 13771, 35908, 13768, 35911, 13765, 35912, 13764, 35913, 13763
 35917, 13759, 35919, 13757, 35921, 13755, 35923, 13753, 35924, 13752, 35925, 13751, 36003, 13923, 36005, 13921
 36007, 13919, 36009, 13917, 36010, 13916, 36011, 13915, 36016, 13910, 36018, 13908, 36019, 13907, 36021, 13905
 36023, 13903, 36024, 13902, 36025, 13901, 36027, 13899, 36030, 13896, 36031, 13895, 36034, 13892, 36037, 13889
 36039, 13887, 36043, 13883, 36047, 13879, 36131, 14045, 36135, 14041, 36137, 14039, 36138, 14038, 36140, 14036
 36145, 14031, 36152, 14024, 36155, 14021, 36158, 14018, 36160, 14016, 36161, 14015, 36163, 14013, 36166, 14010
 36168, 14008, 36169, 14007, 36172, 14004, 36173, 14003, 36175, 14001, 36254, 14172, 36256, 14170, 36257, 14169
 36260, 14166, 36262, 14164, 36264, 14162, 36266, 14160, 36268, 14158, 36273, 14153, 36275, 14151, 36281, 14145
 36285, 14141, 36286, 14140, 36290, 14136, 36292, 14134, 36295, 14131, 36299, 14127, 36383, 14293, 36386, 14290
 36389, 14287, 36390, 14286, 36391, 14285, 36392, 14284, 36395, 14281, 36400, 14276, 36402, 14274, 36406, 14270
 36409, 14267, 36412, 14264, 36424, 14252, 36425, 14251, 36505, 14421, 36511, 14415, 36513, 14413, 36516, 14410
 36517, 14409, 36518, 14408, 36521, 14405, 36525, 14401, 36527, 14399, 36530, 14396, 36537, 14389, 36538, 14388
 36539, 14387, 36542, 14384, 36543, 14383, 36548, 14378, 36549, 14377, 36628, 14548, 36631, 14545, 36634, 14542
 36635, 14541, 36637, 14539, 36638, 14538, 36640, 14536, 36643, 14533, 36645, 14531, 36648, 14528, 36654, 14522
 36657, 14519, 36658, 14518, 36660, 14516, 36662, 14514, 36665, 14511, 36668, 14508, 36670, 14506, 36671, 14505
 36675, 14501, 36754, 14672, 36755, 14671, 36756, 14670, 36757, 14669, 36764, 14662, 36765, 14661, 36766, 14660
 36767, 14659, 36770, 14656, 36772, 14654, 36773, 14653, 36774, 14652, 36776, 14650, 36779, 14647, 36780, 14646
 36782, 14644, 36783, 14643, 36787, 14639, 36791, 14635, 36792, 14634, 36793, 14633, 36794, 14632, 36797, 14629
 36882, 14794, 36888, 14788, 36889, 14787, 36891, 14785, 36901, 14775, 36903, 14773, 36906, 14770, 36910, 14766
 36914, 14762, 36916, 14760, 36917, 14759, 36921, 14755, 36923, 14753, 36924, 14752, 37005, 14921, 37009, 14917
 37017, 14909, 37019, 14907, 37020, 14906, 37029, 14897, 37032, 14894, 37033, 14893, 37035, 14891, 37037, 14889
 37038, 14888, 37040, 14886, 37044, 14882, 37046, 14880, 37128, 15048, 37132, 15044, 37136, 15040, 37137, 15039
 37138, 15038, 37145, 15031, 37146, 15030, 37149, 15027, 37151, 15025, 37153, 15023, 37154, 15022, 37157, 15019
 37158, 15018, 37162, 15014, 37163, 15013, 37165, 15011, 37166, 15010, 37168, 15008, 37171, 15005, 37172, 15004
 37173, 15003, 37175, 15001, 37255, 15171, 37256, 15170, 37259, 15167, 37260, 15166, 37261, 15165, 37262, 15164
 37266, 15160, 37267, 15159, 37271, 15155, 37273, 15153, 37278, 15148, 37283, 15143, 37285, 15141, 37287, 15139
 37288, 15138, 37289, 15137, 37293, 15133, 37294, 15132, 37296, 15130, 37297, 15129, 37300, 15126, 37384, 15292
 37386, 15290, 37390, 15286, 37393, 15283, 37394, 15282, 37402, 15274, 37405, 15271, 37406, 15270, 37409, 15267
 37412, 15264, 37413, 15263, 37417, 15259, 37422, 15254, 37423, 15253, 37424, 15252, 37425, 15251, 37503, 15423
 37504, 15422, 37505, 15421, 37506, 15420, 37509, 15417, 37517, 15409, 37519, 15407, 37522, 15404, 37523, 15403
 37524, 15402, 37525, 15401, 37527, 15399, 37528, 15398, 37531, 15395, 37535, 15391, 37536, 15390, 37544, 15382
 37545, 15381, 37547, 15379, 37548, 15378, 37549, 15377, 37550, 15376, 37630, 15546, 37633, 15543, 37634, 15542
 37636, 15540, 37638, 15538, 37639, 15537, 37646, 15530, 37647, 15529, 37649, 15527, 37650, 15526, 37651, 15525
 37655, 15521, 37661, 15515, 37664, 15512, 37666, 15510, 37668, 15508, 37673, 15503, 37675, 15501, 37756, 15670
 37757, 15669, 37759, 15667, 37763, 15663, 37765, 15661, 37767, 15659, 37772, 15654, 37776, 15650, 37782, 15644
 37783, 15643, 37784, 15642, 37785, 15641, 37786, 15640, 37789, 15637, 37791, 15635, 37792, 15634, 37795, 15631
 37796, 15630, 37797, 15629, 37878, 15798, 37882, 15794, 37884, 15792, 37885, 15791, 37887, 15789, 37890, 15786
 37892, 15784, 37898, 15778, 37899, 15777, 37900, 15776, 37902, 15774, 37903, 15773, 37904, 15772, 37913, 15763
 37915, 15761, 37917, 15759, 37918, 15758, 37919, 15757, 37920, 15756, 37923, 15753, 37925, 15751, 38006, 15920
 38007, 15919, 38009, 15917, 38013, 15913, 38014, 15912, 38015, 15911, 38027, 15899, 38028, 15898, 38031, 15895
 38032, 15894, 38037, 15889, 38038, 15888, 38042, 15884, 38050, 15876, 38129, 16047, 38131, 16045, 38134, 16042
 38140, 16036, 38143, 16033, 38144, 16032, 38146, 16030, 38150, 16026, 38151, 16025, 38154, 16022, 38158, 16018
 38162, 16014, 38165, 16011, 38171, 16005, 38172, 16004, 38175, 16001, 38253, 16173, 38257, 16169, 38261, 16165
 38264, 16162, 38268, 16158, 38271, 16155, 38273, 16153, 38278, 16148, 38279, 16147, 38280, 16146, 38282, 16144
 38284, 16142, 38288, 16138, 38290, 16136, 38295, 16131, 38300, 16126, 38378, 16298, 38379, 16297, 38381, 16295
 38384, 16292, 38385, 16291, 38390, 16286, 38392, 16284, 38394, 16282, 38398, 16278, 38399, 16277, 38401, 16275
 38402, 16274, 38405, 16271, 38406, 16270, 38407, 16269, 38408, 16268, 38411, 16265, 38412, 16264, 38416, 16260
 38417, 16259, 38418, 16258, 38419, 16257, 38421, 16255, 38504, 16422, 38506, 16420, 38508, 16418, 38512, 16414
 38515, 16411, 38517, 16409, 38518, 16408, 38519, 16407, 38520, 16406, 38522, 16404, 38523, 16403, 38525, 16401
 38529, 16397, 38531, 16395, 38532, 16394, 38534, 16392, 38539, 16387, 38541, 16385, 38543, 16383, 38547, 16379
 38548, 16378, 38628, 16548, 38630, 16546, 38633, 16543, 38635, 16541, 38636, 16540, 38640, 16536, 38641, 16535
 38644, 16532, 38651, 16525, 38652, 16524, 38654, 16522, 38656, 16520, 38661, 16515, 38667, 16509, 38669, 16507
 38671, 16505, 38673, 16503, 38675, 16501, 38754, 16672, 38757, 16669, 38759, 16667, 38760, 16666, 38762, 16664
 38763, 16663, 38764, 16662, 38767, 16659, 38769, 16657, 38770, 16656, 38771, 16655, 38774, 16652, 38775, 16651
 38776, 16650, 38777, 16649, 38784, 16642, 38788, 16638, 38789, 16637, 38792, 16634, 38795, 16631, 38796, 16630
 38798, 16628, 38878, 16798, 38883, 16793, 38885, 16791, 38887, 16789, 38890, 16786, 38893, 16783, 38895, 16781
 38896, 16780, 38898, 16778, 38903, 16773, 38905, 16771, 38907, 16769, 38909, 16767, 38910, 16766, 38918, 16758
 38920, 16756, 38922, 16754, 38923, 16753, 38924, 16752, 38925, 16751, 39005, 16921, 39006, 16920, 39009, 16917
 39011, 16915, 39012, 16914, 39013, 16913, 39016, 16910, 39017, 16909, 39020, 16906, 39021, 16905, 39024, 16902
 39028, 16898, 39032, 16894, 39033, 16893, 39040, 16886, 39046, 16880, 39049, 16877, 39132, 17044, 39134, 17042
 39135, 17041, 39136, 17040, 39137, 17039, 39138, 17038, 39140, 17036, 39143, 17033, 39144, 17032, 39148, 17028
 39152, 17024, 39161, 17015, 39164, 17012, 39166, 17010, 39168, 17008, 39172, 17004, 39174, 17002, 39253, 17173
 39254, 17172, 39255, 17171, 39257, 17169, 39258, 17168, 39261, 17165, 39263, 17163, 39266, 17160, 39267, 17159
 39268, 17158, 39272, 17154, 39273, 17153, 39275, 17151, 39279, 17147, 39280, 17146, 39281, 17145, 39288, 17138
 39292, 17134, 39295, 17131, 39297, 17129, 39378, 17298, 39380, 17296, 39384, 17292, 39385, 17291, 39388, 17288
 39389, 17287, 39390, 17286, 39392, 17284, 39393, 17283, 39396, 17280, 39398, 17278, 39403, 17273, 39413, 17263
 39415, 17261, 39418, 17258, 39422, 17254, 39423, 17253, 39424, 17252, 39425, 17251, 39503, 17423, 39504, 17422
 39505, 17421, 39512, 17414, 39513, 17413, 39516, 17410, 39517, 17409, 39522, 17404, 39526, 17400, 39528, 17398
 39532, 17394, 39535, 17391, 39537, 17389, 39538, 17388, 39541, 17385, 39543, 17383, 39544, 17382, 39545, 17381
 39546, 17380, 39632, 17544, 39638, 17538, 39640, 17536, 39642, 17534, 39643, 17533, 39644, 17532, 39645, 17531
 39646, 17530, 39647, 17529, 39648, 17528, 39653, 17523, 39655, 17521, 39658, 17518, 39660, 17516, 39662, 17514
 39663, 17513, 39668, 17508, 39669, 17507, 39672, 17504, 39675, 17501, 39755, 17671, 39756, 17670, 39760, 17666
 39762, 17664, 39763, 17663, 39767, 17659, 39768, 17658, 39769, 17657, 39770, 17656, 39771, 17655, 39773, 17653
 39776, 17650, 39777, 17649, 39778, 17648, 39779, 17647, 39780, 17646, 39781, 17645, 39782, 17644, 39785, 17641
 39787, 17639, 39788, 17638, 39789, 17637, 39790, 17636, 39791, 17635, 39793, 17633, 39794, 17632, 39795, 17631
 39796, 17630, 39797, 17629, 39798, 17628, 39800, 17626, 39883, 17793, 39888, 17788, 39889, 17787, 39892, 17784
 39906, 17770, 39907, 17769, 39909, 17767, 39910, 17766, 39911, 17765, 39913, 17763, 39915, 17761, 39917, 17759
 39918, 17758, 39921, 17755, 39922, 17754, 39925, 17751, 40006, 17920, 40008, 17918, 40009, 17917, 40010, 17916
 40012, 17914, 40013, 17913, 40019, 17907, 40020, 17906, 40021, 17905, 40025, 17901, 40026, 17900, 40027, 17899
 40032, 17894, 40034, 17892, 40039, 17887, 40041, 17885, 40042, 17884, 40045, 17881, 40048, 17878, 40049, 17877
 40134, 18042, 40136, 18040, 40137, 18039, 40138, 18038, 40139, 18037, 40141, 18035, 40142, 18034, 40150, 18026
 40152, 18024, 40157, 18019, 40162, 18014, 40163, 18013, 40164, 18012, 40170, 18006, 40175, 18001, 40256, 18170
 40257, 18169, 40259, 18167, 40262, 18164, 40263, 18163, 40264, 18162, 40267, 18159, 40269, 18157, 40270, 18156
 40271, 18155, 40272, 18154, 40275, 18151, 40280, 18146, 40281, 18145, 40282, 18144, 40283, 18143, 40286, 18140
 40289, 18137, 40292, 18134, 40293, 18133, 40295, 18131, 40296, 18130, 40378, 18298, 40381, 18295, 40382, 18294
 40383, 18293, 40390, 18286, 40393, 18283, 40396, 18280, 40397, 18279, 40399, 18277, 40402, 18274, 40405, 18271
 40416, 18260, 40422, 18254, 40503, 18423, 40508, 18418, 40511, 18415, 40513, 18413, 40515, 18411, 40517, 18409
 40521, 18405, 40522, 18404, 40523, 18403, 40525, 18401, 40528, 18398, 40529, 18397, 40534, 18392, 40536, 18390
 40538, 18388, 40539, 18387, 40544, 18382, 40548, 18378, 40549, 18377, 40550, 18376, 40629, 18547, 40631, 18545
 40632, 18544, 40633, 18543, 40639, 18537, 40640, 18536, 40645, 18531, 40647, 18529, 40649, 18527, 40650, 18526
 40651, 18525, 40661, 18515, 40662, 18514, 40663, 18513, 40673, 18503, 40754, 18672, 40757, 18669, 40760, 18666
 40770, 18656, 40774, 18652, 40779, 18647, 40782, 18644, 40786, 18640, 40790, 18636, 40791, 18635, 40792, 18634
 40794, 18632, 40799, 18627, 40879, 18797, 40880, 18796, 40881, 18795, 40883, 18793, 40885, 18791, 40886, 18790
 40887, 18789, 40891, 18785, 40892, 18784, 40893, 18783, 40901, 18775, 40902, 18774, 40903, 18773, 40904, 18772
 40906, 18770, 40908, 18768, 40912, 18764, 40914, 18762, 40919, 18757, 40921, 18755, 40922, 18754, 41003, 18923
 41006, 18920, 41007, 18919, 41011, 18915, 41012, 18914, 41013, 18913, 41020, 18906, 41023, 18903, 41025, 18901
 41026, 18900, 41028, 18898, 41033, 18893, 41038, 18888, 41039, 18887, 41044, 18882, 41048, 18878, 41049, 18877
 41131, 19045, 41134, 19042, 41135, 19041, 41140, 19036, 41141, 19035, 41143, 19033, 41145, 19031, 41147, 19029
 41149, 19027, 41151, 19025, 41153, 19023, 41158, 19018, 41159, 19017, 41161, 19015, 41162, 19014, 41164, 19012
 41165, 19011, 41166, 19010, 41169, 19007, 41170, 19006, 41171, 19005, 41172, 19004, 41253, 19173, 41257, 19169
 41258, 19168, 41260, 19166, 41262, 19164, 41264, 19162, 41277, 19149, 41279, 19147, 41280, 19146, 41281, 19145
 41286, 19140, 41288, 19138, 41289, 19137, 41290, 19136, 41294, 19132, 41297, 19129, 41299, 19127, 41381, 19295
 41383, 19293, 41385, 19291, 41388, 19288, 41390, 19286, 41391, 19285, 41392, 19284, 41393, 19283, 41396, 19280
 41397, 19279, 41399, 19277, 41401, 19275, 41406, 19270, 41409, 19267, 41412, 19264, 41413, 19263, 41417, 19259
 41419, 19257, 41423, 19253, 41424, 19252, 41425, 19251, 41503, 19423, 41505, 19421, 41508, 19418, 41509, 19417
 41513, 19413, 41516, 19410, 41517, 19409, 41520, 19406, 41521, 19405, 41523, 19403, 41528, 19398, 41531, 19395
 41532, 19394, 41534, 19392, 41535, 19391, 41537, 19389, 41539, 19387, 41545, 19381, 41546, 19380, 41548, 19378
 41629, 19547, 41636, 19540, 41641, 19535, 41644, 19532, 41646, 19530, 41647, 19529, 41648, 19528, 41649, 19527
 41650, 19526, 41652, 19524, 41654, 19522, 41655, 19521, 41656, 19520, 41659, 19517, 41661, 19515, 41663, 19513
 41667, 19509, 41674, 19502, 41675, 19501, 41753, 19673, 41758, 19668, 41767, 19659, 41769, 19657, 41770, 19656
 41773, 19653, 41775, 19651, 41779, 19647, 41786, 19640, 41788, 19638, 41789, 19637, 41793, 19633, 41796, 19630
 41799, 19627, 41878, 19798, 41879, 19797, 41882, 19794, 41885, 19791, 41890, 19786, 41894, 19782, 41896, 19780
 41901, 19775, 41902, 19774, 41905, 19771, 41907, 19769, 41908, 19768, 41909, 19767, 41910, 19766, 41912, 19764
 41916, 19760, 41919, 19757, 41920, 19756, 41921, 19755, 41923, 19753, 41924, 19752, 41925, 19751, 42006, 19920
 42007, 19919, 42009, 19917, 42010, 19916, 42012, 19914, 42013, 19913, 42016, 19910, 42017, 19909, 42018, 19908
 42019, 19907, 42021, 19905, 42022, 19904, 42025, 19901, 42028, 19898, 42029, 19897, 42030, 19896, 42031, 19895
 42032, 19894, 42033, 19893, 42034, 19892, 42040, 19886, 42042, 19884, 42044, 19882, 42045, 19881, 42047, 19879
 42132, 20044, 42134, 20042, 42136, 20040, 42137, 20039, 42142, 20034, 42146, 20030, 42147, 20029, 42148, 20028
 42150, 20026, 42151, 20025, 42154, 20022, 42155, 20021, 42156, 20020, 42158, 20018, 42159, 20017, 42160, 20016
 42164, 20012, 42254, 20172, 42261, 20165, 42262, 20164, 42264, 20162, 42265, 20161, 42271, 20155, 42275, 20151
 42276, 20150, 42280, 20146, 42284, 20142, 42287, 20139, 42288, 20138, 42291, 20135, 42297, 20129, 42298, 20128
 42299, 20127, 42300, 20126, 42378, 20298, 42386, 20290, 42387, 20289, 42389, 20287, 42390, 20286, 42394, 20282
 42395, 20281, 42397, 20279, 42399, 20277, 42400, 20276, 42402, 20274, 42405, 20271, 42406, 20270, 42409, 20267
 42410, 20266, 42414, 20262, 42416, 20260, 42418, 20258, 42423, 20253, 42424, 20252, 42425, 20251, 42505, 20421
 42506, 20420, 42507, 20419, 42515, 20411, 42517, 20409, 42519, 20407, 42520, 20406, 42521, 20405, 42523, 20403
 42526, 20400, 42527, 20399, 42529, 20397, 42530, 20396, 42532, 20394, 42533, 20393, 42534, 20392, 42536, 20390
 42537, 20389, 42542, 20384, 42543, 20383, 42545, 20381, 42546, 20380, 42547, 20379, 42550, 20376, 42628, 20548
 42632, 20544, 42634, 20542, 42636, 20540, 42646, 20530, 42650, 20526, 42651, 20525, 42654, 20522, 42656, 20520
 42657, 20519, 42658, 20518, 42662, 20514, 42663, 20513, 42666, 20510, 42668, 20508, 42670, 20506, 42671, 20505
 42673, 20503, 42674, 20502, 42675, 20501, 42753, 20673, 42762, 20664, 42766, 20660, 42770, 20656, 42773, 20653
 42774, 20652, 42776, 20650, 42777, 20649, 42778, 20648, 42780, 20646, 42785, 20641, 42788, 20638, 42790, 20636
 42794, 20632, 42796, 20630, 42799, 20627, 42878, 20798, 42885, 20791, 42886, 20790, 42890, 20786, 42891, 20785
 42892, 20784, 42895, 20781, 42900, 20776, 42901, 20775, 42902, 20774, 42908, 20768, 42909, 20767, 42910, 20766
 42912, 20764, 42913, 20763, 42914, 20762, 42920, 20756, 42922, 20754, 42925, 20751, 43006, 20920, 43011, 20915
 43013, 20913, 43021, 20905, 43025, 20901, 43027, 20899, 43029, 20897, 43033, 20893, 43034, 20892, 43036, 20890
 43037, 20889, 43039, 20887, 43041, 20885, 43043, 20883, 43045, 20881, 43047, 20879, 43048, 20878, 43131, 21045
 43136, 21040, 43137, 21039, 43140, 21036, 43146, 21030, 43148, 21028, 43160, 21016, 43162, 21014, 43163, 21013
 43168, 21008, 43169, 21007, 43170, 21006, 43171, 21005, 43257, 21169, 43260, 21166, 43262, 21164, 43264, 21162
 43267, 21159, 43268, 21158, 43269, 21157, 43270, 21156, 43271, 21155, 43279, 21147, 43281, 21145, 43283, 21143
 43284, 21142, 43288, 21138, 43289, 21137, 43290, 21136, 43291, 21135, 43293, 21133, 43297, 21129, 43298, 21128
 43299, 21127, 43300, 21126, 43378, 21298, 43379, 21297, 43381, 21295, 43383, 21293, 43384, 21292, 43386, 21290
 43387, 21289, 43389, 21287, 43390, 21286, 43392, 21284, 43393, 21283, 43400, 21276, 43401, 21275, 43402, 21274
 43403, 21273, 43404, 21272, 43405, 21271, 43408, 21268, 43412, 21264, 43413, 21263, 43415, 21261, 43417, 21259
 43419, 21257, 43420, 21256, 43423, 21253, 43425, 21251, 43507, 21419, 43508, 21418, 43513, 21413, 43517, 21409
 43518, 21408, 43520, 21406, 43521, 21405, 43523, 21403, 43524, 21402, 43525, 21401, 43526, 21400, 43529, 21397
 43531, 21395, 43532, 21394, 43533, 21393, 43535, 21391, 43537, 21389, 43539, 21387, 43540, 21386, 43542, 21384
 43543, 21383, 43544, 21382, 43546, 21380, 43550, 21376, 43628, 21548, 43629, 21547, 43634, 21542, 43635, 21541
 43638, 21538, 43639, 21537, 43641, 21535, 43642, 21534, 43644, 21532, 43647, 21529, 43650, 21526, 43652, 21524
 43656, 21520, 43659, 21517, 43664, 21512, 43669, 21507, 43670, 21506, 43673, 21503, 43675, 21501, 43755, 21671
 43760, 21666, 43762, 21664, 43763, 21663, 43764, 21662, 43766, 21660, 43767, 21659, 43772, 21654, 43773, 21653
 43774, 21652, 43778, 21648, 43780, 21646, 43782, 21644, 43786, 21640, 43787, 21639, 43788, 21638, 43789, 21637
 43791, 21635, 43792, 21634, 43793, 21633, 43796, 21630, 43797, 21629, 43798, 21628, 43800, 21626, 43882, 21794
 43883, 21793, 43886, 21790, 43887, 21789, 43888, 21788, 43890, 21786, 43891, 21785, 43896, 21780, 43902, 21774
 43905, 21771, 43907, 21769, 43908, 21768, 43910, 21766, 43916, 21760, 43918, 21758, 43922, 21754, 43925, 21751