 31505,  9421, 31507,  9419, 31510,  9416, 31512,  9414, 31513,  9413, 31514,  9412, 31522,  9404, 31523,  9403
 31524,  9402, 31527,  9399, 31528,  9398, 31530,  9396, 31531,  9395, 31533,  9393, 31536,  9390, 31539,  9387
 31542,  9384, 31543,  9383, 31544,  9382, 31546,  9380, 31548,  9378, 31549,  9377, 31550,  9376, 31630,  9546
 31631,  9545, 31634,  9542, 31638,  9538, 31640,  9536, 31642,  9534, 31643,  9533, 31644,  9532, 31647,  9529
 31648,  9528, 31650,  9526, 31656,  9520, 31657,  9519, 31658,  9518, 31659,  9517, 31661,  9515, 31662,  9514
 31663,  9513, 31664,  9512, 31665,  9511, 31669,  9507, 31675,  9501, 31753,  9673, 31756,  9670, 31757,  9669
 31760,  9666, 31761,  9665, 31763,  9663, 31764,  9662, 31766,  9660, 31768,  9658, 31769,  9657, 31770,  9656
 31772,  9654, 31773,  9653, 31774,  9652, 31775,  9651, 31778,  9648, 31779,  9647, 31781,  9645, 31782,  9644
 31783,  9643, 31784,  9642, 31789,  9637, 31791,  9635, 31792,  9634, 31794,  9632, 31798,  9628, 31799,  9627
 31879,  9797, 31880,  9796, 31881,  9795, 31886,  9790, 31887,  9789, 31897,  9779, 31899,  9777, 31900,  9776
 31903,  9773, 31904,  9772, 31907,  9769, 31908,  9768, 31910,  9766, 31914,  9762, 31915,  9761, 31917,  9759
 31918,  9758, 31920,  9756, 31921,  9755, 31922,  9754, 31923,  9753, 31924,  9752, 31925,  9751, 32003,  9923
 32004,  9922, 32005,  9921, 32006,  9920, 32010,  9916, 32011,  9915, 32012,  9914, 32014,  9912, 32015,  9911
 32016,  9910, 32017,  9909, 32018,  9908, 32019,  9907, 32021,  9905, 32025,  9901, 32027,  9899, 32029,  9897
 32030,  9896, 32032,  9894, 32034,  9892, 32035,  9891, 32038,  9888, 32039,  9887, 32041,  9885, 32042,  9884
 32043,  9883, 32044,  9882, 32046,  9880, 32049,  9877, 32050,  9876, 32128, 10048, 32129, 10047, 32130, 10046
 32132, 10044, 32134, 10042, 32136, 10040, 32138, 10038, 32139, 10037, 32141, 10035, 32143, 10033, 32144, 10032
 32145, 10031, 32147, 10029, 32148, 10028, 32149, 10027, 32150, 10026, 32151, 10025, 32152, 10024, 32153, 10023
 32156, 10020, 32158, 10018, 32159, 10017, 32160, 10016, 32161, 10015, 32162, 10014, 32163, 10013, 32166, 10010
 32168, 10008, 32169, 10007, 32170, 10006, 32173, 10003, 32174, 10002, 32253, 10173, 32254, 10172, 32257, 10169
 32258, 10168, 32263, 10163, 32264, 10162, 32266, 10160, 32270, 10156, 32271, 10155, 32273, 10153, 32275, 10151
 32277, 10149, 32278, 10148, 32279, 10147, 32280, 10146, 32283, 10143, 32285, 10141, 32288, 10138, 32290, 10136
 32291, 10135, 32293, 10133, 32295, 10131, 32298, 10128, 32300, 10126, 32379, 10297, 32380, 10296, 32383, 10293
 32384, 10292, 32385, 10291, 32386, 10290, 32387, 10289, 32390, 10286, 32391, 10285, 32392, 10284, 32393, 10283
 32395, 10281, 32396, 10280, 32397, 10279, 32399, 10277, 32401, 10275, 32402, 10274, 32403, 10273, 32404, 10272
 32407, 10269, 32409, 10267, 32410, 10266, 32413, 10263, 32415, 10261, 32418, 10258, 32420, 10256, 32421, 10255
 32422, 10254, 32423, 10253, 32424, 10252, 32503, 10423, 32504, 10422, 32505, 10421, 32506, 10420, 32507, 10419
 32509, 10417, 32510, 10416, 32511, 10415, 32512, 10414, 32514, 10412, 32516, 10410, 32517, 10409, 32519, 10407
 32520, 10406, 32521, 10405, 32524, 10402, 32525, 10401, 32527, 10399, 32528, 10398, 32529, 10397, 32531, 10395
 32532, 10394, 32536, 10390, 32537, 10389, 32538, 10388, 32544, 10382, 32545, 10381, 32547, 10379, 32548, 10378
 32549, 10377, 32550, 10376, 32628, 10548, 32629, 10547, 32631, 10545, 32635, 10541, 32639, 10537, 32641, 10535
 32644, 10532, 32646, 10530, 32647, 10529, 32648, 10528, 32650, 10526, 32653, 10523, 32654, 10522, 32658, 10518
 32659, 10517, 32661, 10515, 32662, 10514, 32664, 10512, 32668, 10508, 32671, 10505, 32672, 10504, 32673, 10503
 32675, 10501, 32753, 10673, 32755, 10671, 32756, 10670, 32757, 10669, 32758, 10668, 32762, 10664, 32764, 10662
 32765, 10661, 32768, 10658, 32769, 10657, 32770, 10656, 32772, 10654, 32773, 10653, 32777, 10649, 32778, 10648
 32783, 10643, 32786, 10640, 32787, 10639, 32794, 10632, 32795, 10631, 32798, 10628, 32799, 10627, 32800, 10626
 32879, 10797, 32882, 10794, 32883, 10793, 32884, 10792, 32885, 10791, 32886, 10790, 32887, 10789, 32889, 10787
 32891, 10785, 32892, 10784, 32893, 10783, 32899, 10777, 32902, 10774, 32903, 10773, 32904, 10772, 32906, 10770
 32907, 10769, 32910, 10766, 32911, 10765, 32912, 10764, 32913, 10763, 32915, 10761, 32918, 10758, 32919, 10757
 32920, 10756, 32924, 10752, 33008, 10918, 33010, 10916, 33012, 10914, 33013, 10913, 33014, 10912, 33016, 10910
 33017, 10909, 33020, 10906, 33021, 10905, 33024, 10902, 33026, 10900, 33029, 10897, 33031, 10895, 33032, 10894
 33033, 10893, 33035, 10891, 33036, 10890, 33038, 10888, 33045, 10881, 33049, 10877, 33050, 10876, 33129, 11047
 33130, 11046, 33131, 11045, 33132, 11044, 33133, 11043, 33134, 11042, 33135, 11041, 33138, 11038, 33139, 11037
 33140, 11036, 33141, 11035, 33144, 11032, 33145, 11031, 33146, 11030, 33147, 11029, 33148, 11028, 33149, 11027
 33150, 11026, 33152, 11024, 33155, 11021, 33161, 11015, 33162, 11014, 33163, 11013, 33165, 11011, 33166, 11010
 33167, 11009, 33169, 11007, 33170, 11006, 33171, 11005, 33172, 11004, 33173, 11003, 33174, 11002, 33175, 11001
 33255, 11171, 33256, 11170, 33261, 11165, 33264, 11162, 33265, 11161, 33266, 11160, 33267, 11159, 33268, 11158
 33269, 11157, 33271, 11155, 33272, 11154, 33277, 11149, 33279, 11147, 33281, 11145, 33283, 11143, 33284, 11142
 33287, 11139, 33288, 11138, 33289, 11137, 33290, 11136, 33291, 11135, 33296, 11130, 33297, 11129, 33299, 11127
 33300, 11126, 33380, 11296, 33381, 11295, 33382, 11294, 33386, 11290, 33387, 11289, 33388, 11288, 33391, 11285
 33393, 11283, 33397, 11279, 33398, 11278, 33400, 11276, 33401, 11275, 33402, 11274, 33403, 11273, 33404, 11272
 33406, 11270, 33410, 11266, 33412, 11264, 33414, 11262, 33415, 11261, 33416, 11260, 33418, 11258, 33419, 11257
 33420, 11256, 33421, 11255, 33422, 11254, 33423, 11253, 33425, 11251, 33503, 11423, 33505, 11421, 33506, 11420
 33507, 11419, 33508, 11418, 33509, 11417, 33511, 11415, 33514, 11412, 33516, 11410, 33517, 11409, 33518, 11408
 33520, 11406, 33522, 11404, 33523, 11403, 33526, 11400, 33528, 11398, 33529, 11397, 33531, 11395, 33532, 11394
 33533, 11393, 33537, 11389, 33539, 11387, 33542, 11384, 33544, 11382, 33548, 11378, 33549, 11377, 33628, 11548
 33629, 11547, 33633, 11543, 33636, 11540, 33640, 11536, 33641, 11535, 33644, 11532, 33645, 11531, 33647, 11529
 33650, 11526, 33655, 11521, 33658, 11518, 33660, 11516, 33661, 11515, 33662, 11514, 33663, 11513, 33666, 11510
 33671, 11505, 33673, 11503, 33674, 11502, 33675, 11501, 33757, 11669, 33758, 11668, 33763, 11663, 33764, 11662
 33766, 11660, 33768, 11658, 33769, 11657, 33771, 11655, 33772, 11654, 33774, 11652, 33776, 11650, 33777, 11649
 33780, 11646, 33781, 11645, 33783, 11643, 33785, 11641, 33786, 11640, 33788, 11638, 33793, 11633, 33794, 11632
 33797, 11629, 33798, 11628, 33881, 11795, 33882, 11794, 33883, 11793, 33885, 11791, 33886, 11790, 33887, 11789
 33888, 11788, 33891, 11785, 33893, 11783, 33896, 11780, 33901, 11775, 33902, 11774, 33903, 11773, 33904, 11772
 33905, 11771, 33907, 11769, 33909, 11767, 33910, 11766, 33914, 11762, 33915, 11761, 33916, 11760, 33917, 11759
 33919, 11757, 33920, 11756, 33921, 11755, 33922, 11754, 33924, 11752, 33925, 11751, 34003, 11923, 34005, 11921
 34007, 11919, 34009, 11917, 34010, 11916, 34011, 11915, 34012, 11914, 34013, 11913, 34017, 11909, 34018, 11908
 34021, 11905, 34022, 11904, 34025, 11901, 34027, 11899, 34028, 11898, 34032, 11894, 34035, 11891, 34036, 11890
 34037, 11889, 34040, 11886, 34041, 11885, 34042, 11884, 34046, 11880, 34047, 11879, 34049, 11877, 34050, 11876
 34129, 12047, 34131, 12045, 34134, 12042, 34135, 12041, 34137, 12039, 34139, 12037, 34140, 12036, 34143, 12033
 34144, 12032, 34148, 12028, 34149, 12027, 34152, 12024, 34153, 12023, 34158, 12018, 34159, 12017, 34160, 12016
 34163, 12013, 34164, 12012, 34166, 12010, 34169, 12007, 34170, 12006, 34171, 12005, 34172, 12004, 34175, 12001
 34253, 12173, 34254, 12172, 34259, 12167, 34260, 12166, 34261, 12165, 34262, 12164, 34266, 12160, 34267, 12159
 34268, 12158, 34270, 12156, 34272, 12154, 34273, 12153, 34274, 12152, 34276, 12150, 34277, 12149, 34278, 12148
 34280, 12146, 34282, 12144, 34283, 12143, 34285, 12141, 34288, 12138, 34292, 12134, 34293, 12133, 34298, 12128
 34299, 12127, 34300, 12126, 34378, 12298, 34379, 12297, 34385, 12291, 34388, 12288, 34390, 12286, 34394, 12282
 34395, 12281, 34396, 12280, 34397, 12279, 34401, 12275, 34403, 12273, 34405, 12271, 34413, 12263, 34414, 12262
 34417, 12259, 34419, 12257, 34422, 12254, 34423, 12253, 34424, 12252, 34505, 12421, 34506, 12420, 34507, 12419
 34508, 12418, 34511, 12415, 34516, 12410, 34517, 12409, 34519, 12407, 34524, 12402, 34525, 12401, 34528, 12398
 34529, 12397, 34530, 12396, 34533, 12393, 34535, 12391, 34536, 12390, 34539, 12387, 34544, 12382, 34545, 12381
 34546, 12380, 34547, 12379, 34548, 12378, 34549, 12377, 34550, 12376, 34631, 12545, 34632, 12544, 34633, 12543
 34634, 12542, 34635, 12541, 34637, 12539, 34638, 12538, 34640, 12536, 34642, 12534, 34643, 12533, 34646, 12530
 34648, 12528, 34650, 12526, 34651, 12525, 34653, 12523, 34658, 12518, 34660, 12516, 34662, 12514, 34664, 12512
 34668, 12508, 34672, 12504, 34674, 12502, 34675, 12501, 34753, 12673, 34756, 12670, 34757, 12669, 34759, 12667
 34763, 12663, 34764, 12662, 34767, 12659, 34768, 12658, 34769, 12657, 34775, 12651, 34776, 12650, 34777, 12649
 34779, 12647, 34781, 12645, 34782, 12644, 34783, 12643, 34785, 12641, 34786, 12640, 34789, 12637, 34792, 12634
 34793, 12633, 34795, 12631, 34796, 12630, 34799, 12627, 34878, 12798, 34881, 12795, 34882, 12794, 34884, 12792
 34886, 12790, 34888, 12788, 34889, 12787, 34891, 12785, 34892, 12784, 34894, 12782, 34897, 12779, 34898, 12778
 34899, 12777, 34901, 12775, 34902, 12774, 34904, 12772, 34905, 12771, 34906, 12770, 34907, 12769, 34909, 12767
 34910, 12766, 34911, 12765, 34913, 12763, 34915, 12761, 34917, 12759, 34918, 12758, 34919, 12757, 34921, 12755
 34922, 12754, 34924, 12752, 34925, 12751, 35006, 12920, 35009, 12917, 35010, 12916, 35011, 12915, 35014, 12912
 35016, 12910, 35017, 12909, 35018, 12908, 35021, 12905, 35022, 12904, 35029, 12897, 35030, 12896, 35031, 12895
 35032, 12894, 35033, 12893, 35037, 12889, 35039, 12887, 35040, 12886, 35042, 12884, 35045, 12881, 35046, 12880
 35047, 12879, 35049, 12877, 35128, 13048, 35129, 13047, 35130, 13046, 35132, 13044, 35134, 13042, 35135, 13041
 35141, 13035, 35142, 13034, 35144, 13032, 35145, 13031, 35146, 13030, 35147, 13029, 35148, 13028, 35151, 13025
 35152, 13024, 35153, 13023, 35154, 13022, 35156, 13020, 35157, 13019, 35159, 13017, 35160, 13016, 35162, 13014
 35163, 13013, 35165, 13011, 35166, 13010, 35168, 13008, 35169, 13007, 35170, 13006, 35171, 13005, 35253, 13173
 35256, 13170, 35258, 13168, 35259, 13167, 35262, 13164, 35266, 13160, 35268, 13158, 35269, 13157, 35272, 13154
 35273, 13153, 35274, 13152, 35275, 13151, 35277, 13149, 35278, 13148, 35279, 13147, 35281, 13145, 35283, 13143
 35284, 13142, 35285, 13141, 35286, 13140, 35290, 13136, 35294, 13132, 35296, 13130, 35300, 13126, 35381, 13295
 35382, 13294, 35383, 13293, 35384, 13292, 35385, 13291, 35386, 13290, 35387, 13289, 35388, 13288, 35389, 13287
 35391, 13285, 35394, 13282, 35397, 13279, 35399, 13277, 35400, 13276, 35401, 13275, 35402, 13274, 35403, 13273
 35405, 13271, 35407, 13269, 35408, 13268, 35409, 13267, 35410, 13266, 35414, 13262, 35419, 13257, 35421, 13255
 35503, 13423, 35504, 13422, 35505, 13421, 35506, 13420, 35507, 13419, 35508, 13418, 35512, 13414, 35515, 13411
 35516, 13410, 35518, 13408, 35519, 13407, 35520, 13406, 35526, 13400, 35527, 13399, 35528, 13398, 35529, 13397
 35530, 13396, 35531, 13395, 35532, 13394, 35533, 13393, 35534, 13392, 35535, 13391, 35536, 13390, 35538, 13388
 35542, 13384, 35544, 13382, 35546, 13380, 35547, 13379, 35548, 13378, 35549, 13377, 35550, 13376, 35630, 13546
 35631, 13545, 35633, 13543, 35639, 13537, 35641, 13535, 35643, 13533, 35647, 13529, 35648, 13528, 35651, 13525
 35656, 13520, 35657, 13519, 35659, 13517, 35660, 13516, 35661, 13515, 35662, 13514, 35663, 13513, 35664, 13512
 35665, 13511, 35671, 13505, 35672, 13504, 35755, 13671, 35756, 13670, 35757, 13669, 35761, 13665, 35762, 13664
 35763, 13663, 35764, 13662, 35766, 13660, 35767, 13659, 35768, 13658, 35770, 13656, 35771, 13655, 35772, 13654
 35773, 13653, 35775, 13651, 35776, 13650, 35777, 13649, 35778, 13648, 35780, 13646, 35782, 13644, 35783, 13643
 35784, 13642, 35785, 13641, 35790, 13636, 35791, 13635, 35793, 13633, 35798, 13628, 35879, 13797, 35880, 13796
 35881, 13795, 35883, 13793, 35885, 13791, 35888, 13788, 35889, 13787, 35892, 13784, 35893, 13783, 35894, 13782
 35895, 13781, 35897, 13779, 35901, 13775, 35906, 13770, 35907, 13769, 35909, 13767, 35910, 13766, 35914, 13762
 35915, 13761, 35916, 13760, 35918, 13758, 36006, 13920, 36008, 13918, 36012, 13914, 36013, 13913, 36014, 13912
 36015, 13911, 36020, 13906, 36022, 13904, 36026, 13900, 36028, 13898, 36029, 13897, 36032, 13894, 36033, 13893
 36036, 13890, 36038, 13888, 36040, 13886, 36041, 13885, 36042, 13884, 36044, 13882, 36045, 13881, 36046, 13880
 36048, 13878, 36049, 13877, 36050, 13876, 36128, 14048, 36130, 14046, 36133, 14043, 36134, 14042, 36136, 14040
 36139, 14037, 36141, 14035, 36142, 14034, 36143, 14033, 36144, 14032, 36146, 14030, 36147, 14029, 36148, 14028
 36149, 14027, 36150, 14026, 36151, 14025, 36153, 14023, 36154, 14022, 36156, 14020, 36157, 14019, 36159, 14017
 36162, 14014, 36164, 14012, 36165, 14011, 36167, 14009, 36170, 14006, 36171, 14005, 36174, 14002, 36253, 14173
 36255, 14171, 36258, 14168, 36259, 14167, 36263, 14163, 36265, 14161, 36267, 14159, 36269, 14157, 36270, 14156
 36271, 14155, 36272, 14154, 36274, 14152, 36277, 14149, 36278, 14148, 36279, 14147, 36282, 14144, 36283, 14143
 36284, 14142, 36287, 14139, 36288, 14138, 36289, 14137, 36291, 14135, 36293, 14133, 36294, 14132, 36296, 14130
 36297, 14129, 36298, 14128, 36300, 14126, 36378, 14298, 36379, 14297, 36380, 14296, 36381, 14295, 36382, 14294
 36385, 14291, 36387, 14289, 36388, 14288, 36393, 14283, 36394, 14282, 36396, 14280, 36397, 14279, 36398, 14278
 36399, 14277, 36401, 14275, 36403, 14273, 36404, 14272, 36405, 14271, 36407, 14269, 36410, 14266, 36411, 14265
 36413, 14263, 36414, 14262, 36415, 14261, 36416, 14260, 36417, 14259, 36418, 14258, 36419, 14257, 36420, 14256
 36421, 14255, 36422, 14254, 36423, 14253, 36503, 14423, 36504, 14422, 36506, 14420, 36507, 14419, 36508, 14418
 36509, 14417, 36510, 14416, 36512, 14414, 36514, 14412, 36515, 14411, 36520, 14406, 36522, 14404, 36523, 14403
 36528, 14398, 36531, 14395, 36532, 14394, 36533, 14393, 36534, 14392, 36535, 14391, 36536, 14390, 36540, 14386
 36541, 14385, 36544, 14382, 36545, 14381, 36546, 14380, 36547, 14379, 36550, 14376, 36629, 14547, 36630, 14546
 36632, 14544, 36633, 14543, 36639, 14537, 36641, 14535, 36642, 14534, 36644, 14532, 36646, 14530, 36647, 14529
 36649, 14527, 36650, 14526, 36651, 14525, 36652, 14524, 36653, 14523, 36656, 14520, 36661, 14515, 36663, 14513
 36664, 14512, 36666, 14510, 36667, 14509, 36669, 14507, 36672, 14504, 36674, 14502, 36753, 14673, 36758, 14668
 36759, 14667, 36761, 14665, 36762, 14664, 36768, 14658, 36769, 14657, 36771, 14655, 36775, 14651, 36777, 14649
 36778, 14648, 36781, 14645, 36784, 14642, 36785, 14641, 36786, 14640, 36788, 14638, 36789, 14637, 36790, 14636
 36795, 14631, 36798, 14628, 36799, 14627, 36800, 14626, 36878, 14798, 36879, 14797, 36880, 14796, 36881, 14795
 36883, 14793, 36884, 14792, 36885, 14791, 36887, 14789, 36890, 14786, 36892, 14784, 36893, 14783, 36894, 14782
 36895, 14781, 36896, 14780, 36897, 14779, 36899, 14777, 36902, 14774, 36904, 14772, 36905, 14771, 36907, 14769
 36908, 14768, 36909, 14767, 36911, 14765, 36913, 14763, 36918, 14758, 36919, 14757, 36920, 14756, 36922, 14754
 36925, 14751, 37003, 14923, 37004, 14922, 37006, 14920, 37008, 14918, 37010, 14916, 37011, 14915, 37012, 14914
 37013, 14913, 37014, 14912, 37015, 14911, 37016, 14910, 37018, 14908, 37021, 14905, 37022, 14904, 37023, 14903
 37024, 14902, 37025, 14901, 37026, 14900, 37027, 14899, 37028, 14898, 37030, 14896, 37031, 14895, 37034, 14892
 37036, 14890, 37039, 14887, 37041, 14885, 37042, 14884, 37043, 14883, 37045, 14881, 37047, 14879, 37048, 14878
 37049, 14877, 37050, 14876, 37129, 15047, 37130, 15046, 37131, 15045, 37133, 15043, 37134, 15042, 37135, 15041
 37139, 15037, 37140, 15036, 37141, 15035, 37142, 15034, 37143, 15033, 37144, 15032, 37147, 15029, 37148, 15028
 37150, 15026, 37152, 15024, 37155, 15021, 37156, 15020, 37159, 15017, 37160, 15016, 37161, 15015, 37164, 15012
 37167, 15009, 37169, 15007, 37170, 15006, 37253, 15173, 37254, 15172, 37257, 15169, 37258, 15168, 37263, 15163
 37264, 15162, 37269, 15157, 37270, 15156, 37272, 15154, 37274, 15152, 37275, 15151, 37276, 15150, 37277, 15149
 37279, 15147, 37280, 15146, 37281, 15145, 37282, 15144, 37284, 15142, 37286, 15140, 37290, 15136, 37291, 15135
 37292, 15134, 37295, 15131, 37298, 15128, 37299, 15127, 37378, 15298, 37379, 15297, 37380, 15296, 37381, 15295
 37382, 15294, 37383, 15293, 37385, 15291, 37387, 15289, 37388, 15288, 37389, 15287, 37391, 15285, 37392, 15284
 37395, 15281, 37396, 15280, 37397, 15279, 37398, 15278, 37399, 15277, 37400, 15276, 37403, 15273, 37404, 15272
 37407, 15269, 37408, 15268, 37410, 15266, 37411, 15265, 37414, 15262, 37415, 15261, 37416, 15260, 37418, 15258
 37419, 15257, 37420, 15256, 37421, 15255, 37507, 15419, 37508, 15418, 37510, 15416, 37511, 15415, 37512, 15414
 37513, 15413, 37514, 15412, 37515, 15411, 37516, 15410, 37518, 15408, 37520, 15406, 37521, 15405, 37526, 15400
 37529, 15397, 37530, 15396, 37532, 15394, 37533, 15393, 37534, 15392, 37537, 15389, 37538, 15388, 37540, 15386
 37541, 15385, 37542, 15384, 37628, 15548, 37629, 15547, 37631, 15545, 37632, 15544, 37635, 15541, 37637, 15539
 37640, 15536, 37641, 15535, 37642, 15534, 37643, 15533, 37644, 15532, 37645, 15531, 37648, 15528, 37652, 15524
 37653, 15523, 37654, 15522, 37656, 15520, 37657, 15519, 37658, 15518, 37659, 15517, 37660, 15516, 37662, 15514
 37663, 15513, 37667, 15509, 37669, 15507, 37670, 15506, 37671, 15505, 37672, 15504, 37674, 15502, 37753, 15673
 37754, 15672, 37755, 15671, 37758, 15668, 37760, 15666, 37761, 15665, 37764, 15662, 37766, 15660, 37768, 15658
 37769, 15657, 37770, 15656, 37771, 15655, 37773, 15653, 37774, 15652, 37777, 15649, 37778, 15648, 37779, 15647
 37780, 15646, 37781, 15645, 37787, 15639, 37788, 15638, 37793, 15633, 37798, 15628, 37799, 15627, 37879, 15797
 37880, 15796, 37881, 15795, 37883, 15793, 37886, 15790, 37888, 15788, 37889, 15787, 37891, 15785, 37893, 15783
 37894, 15782, 37895, 15781, 37896, 15780, 37901, 15775, 37905, 15771, 37906, 15770, 37907, 15769, 37909, 15767
 37910, 15766, 37911, 15765, 37912, 15764, 37914, 15762, 37916, 15760, 37921, 15755, 37922, 15754, 37924, 15752
 38004, 15922, 38005, 15921, 38008, 15918, 38010, 15916, 38011, 15915, 38012, 15914, 38016, 15910, 38017, 15909
 38018, 15908, 38019, 15907, 38020, 15906, 38021, 15905, 38022, 15904, 38023, 15903, 38024, 15902, 38025, 15901
 38026, 15900, 38029, 15897, 38030, 15896, 38033, 15893, 38034, 15892, 38035, 15891, 38036, 15890, 38039, 15887
 38040, 15886, 38041, 15885, 38043, 15883, 38044, 15882, 38045, 15881, 38046, 15880, 38047, 15879, 38049, 15877
 38128, 16048, 38130, 16046, 38132, 16044, 38133, 16043, 38135, 16041, 38136, 16040, 38137, 16039, 38138, 16038
 38139, 16037, 38141, 16035, 38145, 16031, 38147, 16029, 38148, 16028, 38149, 16027, 38152, 16024, 38153, 16023
 38155, 16021, 38156, 16020, 38157, 16019, 38159, 16017, 38160, 16016, 38161, 16015, 38163, 16013, 38164, 16012
 38166, 16010, 38167, 16009, 38168, 16008, 38169, 16007, 38170, 16006, 38173, 16003, 38254, 16172, 38255, 16171
 38256, 16170, 38259, 16167, 38260, 16166, 38262, 16164, 38263, 16163, 38265, 16161, 38266, 16160, 38267, 16159
 38269, 16157, 38270, 16156, 38272, 16154, 38274, 16152, 38275, 16151, 38276, 16150, 38277, 16149, 38281, 16145
 38283, 16143, 38285, 16141, 38286, 16140, 38289, 16137, 38291, 16135, 38292, 16134, 38294, 16132, 38296, 16130
 38297, 16129, 38298, 16128, 38380, 16296, 38382, 16294, 38383, 16293, 38386, 16290, 38387, 16289, 38388, 16288
 38389, 16287, 38393, 16283, 38395, 16281, 38396, 16280, 38400, 16276, 38403, 16273, 38404, 16272, 38409, 16267
 38410, 16266, 38413, 16263, 38414, 16262, 38415, 16261, 38420, 16256, 38423, 16253, 38424, 16252, 38425, 16251
 38503, 16423, 38505, 16421, 38509, 16417, 38510, 16416, 38511, 16415, 38513, 16413, 38514, 16412, 38516, 16410
 38521, 16405, 38524, 16402, 38526, 16400, 38527, 16399, 38528, 16398, 38533, 16393, 38535, 16391, 38536, 16390
 38537, 16389, 38538, 16388, 38540, 16386, 38542, 16384, 38544, 16382, 38545, 16381, 38546, 16380, 38549, 16377
 38550, 16376, 38629, 16547, 38631, 16545, 38632, 16544, 38634, 16542, 38637, 16539, 38638, 16538, 38639, 16537
 38642, 16534, 38645, 16531, 38647, 16529, 38648, 16528, 38649, 16527, 38650, 16526, 38655, 16521, 38657, 16519
 38658, 16518, 38659, 16517, 38660, 16516, 38662, 16514, 38663, 16513, 38664, 16512, 38665, 16511, 38666, 16510
 38668, 16508, 38670, 16506, 38672, 16504, 38674, 16502, 38753, 16673, 38755, 16671, 38756, 16670, 38758, 16668
 38761, 16665, 38765, 16661, 38766, 16660, 38768, 16658, 38772, 16654, 38778, 16648, 38780, 16646, 38781, 16645
 38782, 16644, 38783, 16643, 38786, 16640, 38787, 16639, 38790, 16636, 38791, 16635, 38793, 16633, 38794, 16632
 38797, 16629, 38799, 16627, 38800, 16626, 38879, 16797, 38880, 16796, 38881, 16795, 38882, 16794, 38886, 16790
 38888, 16788, 38889, 16787, 38891, 16785, 38892, 16784, 38894, 16782, 38897, 16779, 38899, 16777, 38900, 16776
 38901, 16775, 38902, 16774, 38904, 16772, 38906, 16770, 38908, 16768, 38911, 16765, 38912, 16764, 38913, 16763
 38914, 16762, 38915, 16761, 38917, 16759, 38921, 16755, 39003, 16923, 39004, 16922, 39008, 16918, 39010, 16916
 39014, 16912, 39015, 16911, 39018, 16908, 39019, 16907, 39022, 16904, 39023, 16903, 39025, 16901, 39026, 16900
 39027, 16899, 39029, 16897, 39030, 16896, 39031, 16895, 39034, 16892, 39035, 16891, 39036, 16890, 39037, 16889
 39038, 16888, 39039, 16887, 39041, 16885, 39042, 16884, 39043, 16883, 39044, 16882, 39047, 16879, 39048, 16878
 39050, 16876, 39128, 17048, 39129, 17047, 39130, 17046, 39131, 17045, 39133, 17043, 39139, 17037, 39141, 17035
 39142, 17034, 39145, 17031, 39146, 17030, 39147, 17029, 39149, 17027, 39150, 17026, 39151, 17025, 39154, 17022
 39155, 17021, 39156, 17020, 39157, 17019, 39158, 17018, 39159, 17017, 39160, 17016, 39162, 17014, 39163, 17013
 39165, 17011, 39169, 17007, 39170, 17006, 39171, 17005, 39173, 17003, 39175, 17001, 39256, 17170, 39260, 17166
 39262, 17164, 39264, 17162, 39265, 17161, 39269, 17157, 39270, 17156, 39271, 17155, 39274, 17152, 39276, 17150
 39277, 17149, 39278, 17148, 39283, 17143, 39284, 17142, 39285, 17141, 39286, 17140, 39287, 17139, 39289, 17137
 39290, 17136, 39291, 17135, 39293, 17133, 39294, 17132, 39299, 17127, 39300, 17126, 39379, 17297, 39381, 17295
 39382, 17294, 39383, 17293, 39386, 17290, 39387, 17289, 39391, 17285, 39394, 17282, 39395, 17281, 39397, 17279
 39400, 17276, 39401, 17275, 39402, 17274, 39404, 17272, 39405, 17271, 39406, 17270, 39407, 17269, 39408, 17268
 39409, 17267, 39410, 17266, 39411, 17265, 39412, 17264, 39414, 17262, 39416, 17260, 39417, 17259, 39419, 17257
 39421, 17255, 39506, 17420, 39507, 17419, 39508, 17418, 39509, 17417, 39510, 17416, 39511, 17415, 39514, 17412
 39515, 17411, 39519, 17407, 39520, 17406, 39523, 17403, 39524, 17402, 39525, 17401, 39527, 17399, 39529, 17397
 39530, 17396, 39531, 17395, 39533, 17393, 39534, 17392, 39536, 17390, 39539, 17387, 39540, 17386, 39542, 17384
 39547, 17379, 39548, 17378, 39549, 17377, 39550, 17376, 39628, 17548, 39629, 17547, 39631, 17545, 39633, 17543
 39635, 17541, 39636, 17540, 39639, 17537, 39641, 17535, 39649, 17527, 39650, 17526, 39651, 17525, 39654, 17522
 39656, 17520, 39657, 17519, 39659, 17517, 39661, 17515, 39664, 17512, 39665, 17511, 39666, 17510, 39667, 17509
 39670, 17506, 39671, 17505, 39673, 17503, 39674, 17502, 39753, 17673, 39754, 17672, 39758, 17668, 39759, 17667
 39761, 17665, 39764, 17662, 39765, 17661, 39766, 17660, 39772, 17654, 39774, 17652, 39775, 17651, 39783, 17643
 39784, 17642, 39786, 17640, 39792, 17634, 39799, 17627, 39878, 17798, 39879, 17797, 39880, 17796, 39884, 17792
 39885, 17791, 39886, 17790, 39887, 17789, 39890, 17786, 39891, 17785, 39893, 17783, 39894, 17782, 39896, 17780
 39897, 17779, 39898, 17778, 39899, 17777, 39901, 17775, 39902, 17774, 39903, 17773, 39904, 17772, 39905, 17771
 39908, 17768, 39912, 17764, 39914, 17762, 39916, 17760, 39920, 17756, 39923, 17753, 39924, 17752, 40003, 17923
 40004, 17922, 40005, 17921, 40007, 17919, 40011, 17915, 40014, 17912, 40015, 17911, 40016, 17910, 40017, 17909
 40018, 17908, 40022, 17904, 40023, 17903, 40024, 17902, 40029, 17897, 40030, 17896, 40031, 17895, 40033, 17893
 40035, 17891, 40037, 17889, 40038, 17888, 40040, 17886, 40043, 17883, 40044, 17882, 40046, 17880, 40047, 17879
 40050, 17876, 40128, 18048, 40129, 18047, 40130, 18046, 40131, 18045, 40132, 18044, 40133, 18043, 40135, 18041
 40140, 18036, 40143, 18033, 40145, 18031, 40146, 18030, 40147, 18029, 40148, 18028, 40149, 18027, 40151, 18025
 40153, 18023, 40154, 18022, 40155, 18021, 40156, 18020, 40158, 18018, 40159, 18017, 40160, 18016, 40161, 18015
 40165, 18011, 40166, 18010, 40167, 18009, 40168, 18008, 40169, 18007, 40171, 18005, 40172, 18004, 40173, 18003
 40253, 18173, 40254, 18172, 40255, 18171, 40258, 18168, 40260, 18166, 40261, 18165, 40265, 18161, 40268, 18158
 40273, 18153, 40274, 18152, 40276, 18150, 40277, 18149, 40278, 18148, 40279, 18147, 40284, 18142, 40285, 18141
 40287, 18139, 40288, 18138, 40290, 18136, 40291, 18135, 40294, 18132, 40297, 18129, 40298, 18128, 40299, 18127
 40300, 18126, 40379, 18297, 40380, 18296, 40384, 18292, 40385, 18291, 40386, 18290, 40387, 18289, 40388, 18288
 40389, 18287, 40391, 18285, 40392, 18284, 40394, 18282, 40395, 18281, 40400, 18276, 40401, 18275, 40403, 18273
 40404, 18272, 40406, 18270, 40407, 18269, 40408, 18268, 40409, 18267, 40410, 18266, 40411, 18265, 40412, 18264
 40413, 18263, 40414, 18262, 40415, 18261, 40417, 18259, 40418, 18258, 40419, 18257, 40420, 18256, 40421, 18255
 40423, 18253, 40424, 18252, 40425, 18251, 40504, 18422, 40505, 18421, 40506, 18420, 40509, 18417, 40510, 18416
 40516, 18410, 40518, 18408, 40519, 18407, 40520, 18406, 40524, 18402, 40526, 18400, 40527, 18399, 40530, 18396
 40531, 18395, 40532, 18394, 40533, 18393, 40535, 18391, 40537, 18389, 40540, 18386, 40541, 18385, 40542, 18384
 40543, 18383, 40545, 18381, 40546, 18380, 40547, 18379, 40628, 18548, 40630, 18546, 40634, 18542, 40636, 18540
 40637, 18539, 40638, 18538, 40641, 18535, 40642, 18534, 40643, 18533, 40644, 18532, 40648, 18528, 40652, 18524
 40653, 18523, 40654, 18522, 40655, 18521, 40656, 18520, 40657, 18519, 40658, 18518, 40659, 18517, 40664, 18512
 40665, 18511, 40666, 18510, 40667, 18509, 40669, 18507, 40670, 18506, 40671, 18505, 40672, 18504, 40674, 18502
 40675, 18501, 40753, 18673, 40755, 18671, 40756, 18670, 40758, 18668, 40759, 18667, 40761, 18665, 40762, 18664
 40764, 18662, 40765, 18661, 40766, 18660, 40767, 18659, 40768, 18658, 40769, 18657, 40771, 18655, 40772, 18654
 40773, 18653, 40775, 18651, 40776, 18650, 40777, 18649, 40780, 18646, 40781, 18645, 40783, 18643, 40784, 18642
 40785, 18641, 40787, 18639, 40788, 18638, 40789, 18637, 40793, 18633, 40795, 18631, 40796, 18630, 40797, 18629
 40798, 18628, 40800, 18626, 40878, 18798, 40882, 18794, 40884, 18792, 40888, 18788, 40889, 18787, 40890, 18786
 40894, 18782, 40895, 18781, 40896, 18780, 40897, 18779, 40898, 18778, 40900, 18776, 40905, 18771, 40907, 18769
 40909, 18767, 40910, 18766, 40911, 18765, 40913, 18763, 40915, 18761, 40916, 18760, 40917, 18759, 40923, 18753
 40924, 18752, 40925, 18751, 41004, 18922, 41005, 18921, 41008, 18918, 41009, 18917, 41014, 18912, 41015, 18911
 41016, 18910, 41017, 18909, 41018, 18908, 41019, 18907, 41021, 18905, 41022, 18904, 41024, 18902, 41027, 18899
 41030, 18896, 41031, 18895, 41032, 18894, 41034, 18892, 41035, 18891, 41036, 18890, 41037, 18889, 41040, 18886
 41042, 18884, 41043, 18883, 41045, 18881, 41046, 18880, 41047, 18879, 41050, 18876, 41129, 19047, 41130, 19046
 41132, 19044, 41133, 19043, 41136, 19040, 41137, 19039, 41138, 19038, 41139, 19037, 41142, 19034, 41144, 19032
 41146, 19030, 41148, 19028, 41150, 19026, 41152, 19024, 41154, 19022, 41155, 19021, 41156, 19020, 41157, 19019
 41160, 19016, 41163, 19013, 41167, 19009, 41168, 19008, 41173, 19003, 41174, 19002, 41175, 19001, 41254, 19172
 41256, 19170, 41259, 19167, 41261, 19165, 41263, 19163, 41265, 19161, 41266, 19160, 41267, 19159, 41269, 19157
 41270, 19156, 41271, 19155, 41272, 19154, 41273, 19153, 41274, 19152, 41275, 19151, 41276, 19150, 41278, 19148
 41282, 19144, 41283, 19143, 41284, 19142, 41287, 19139, 41291, 19135, 41292, 19134, 41293, 19133, 41295, 19131
 41296, 19130, 41298, 19128, 41300, 19126, 41378, 19298, 41379, 19297, 41380, 19296, 41382, 19294, 41387, 19289
 41389, 19287, 41394, 19282, 41395, 19281, 41398, 19278, 41400, 19276, 41402, 19274, 41404, 19272, 41405, 19271
 41407, 19269, 41410, 19266, 41411, 19265, 41414, 19262, 41416, 19260, 41418, 19258, 41420, 19256, 41421, 19255
 41422, 19254, 41504, 19422, 41506, 19420, 41507, 19419, 41510, 19416, 41511, 19415, 41512, 19414, 41514, 19412
 41515, 19411, 41518, 19408, 41519, 19407, 41522, 19404, 41524, 19402, 41525, 19401, 41526, 19400, 41527, 19399
 41536, 19390, 41538, 19388, 41540, 19386, 41541, 19385, 41543, 19383, 41547, 19379, 41550, 19376, 41630, 19546
 41631, 19545, 41632, 19544, 41633, 19543, 41634, 19542, 41635, 19541, 41637, 19539, 41638, 19538, 41640, 19536
 41642, 19534, 41643, 19533, 41645, 19531, 41651, 19525, 41653, 19523, 41657, 19519, 41658, 19518, 41660, 19516
 41662, 19514, 41664, 19512, 41665, 19511, 41669, 19507, 41670, 19506, 41671, 19505, 41672, 19504, 41673, 19503