 31503,  9423, 31509,  9417, 31515,  9411, 31629,  9547, 31649,  9527, 31652,  9524, 31670,  9506, 31673,  9503
 31754,  9672, 31780,  9646, 31785,  9641, 31902,  9774, 31911,  9765, 32023,  9903, 32040,  9886, 32140, 10036
 32154, 10022, 32165, 10011, 32267, 10159, 32294, 10132, 32389, 10287, 32400, 10276, 32533, 10393, 32542, 10384
 32546, 10380, 32638, 10538, 32660, 10516, 32674, 10502, 32759, 10667, 32760, 10666, 32779, 10647, 32785, 10641
 32788, 10638, 32894, 10782, 32900, 10776, 32909, 10767, 32916, 10760, 33003, 10923, 33039, 10887, 33043, 10883
 33044, 10882, 33048, 10878, 33168, 11008, 33254, 11172, 33262, 11164, 33292, 11134, 33294, 11132, 33384, 11292
 33385, 11291, 33399, 11277, 33409, 11267, 33545, 11381, 33635, 11541, 33665, 11511, 33667, 11509, 33670, 11506
 33779, 11647, 33899, 11777, 33911, 11765, 34016, 11910, 34020, 11906, 34038, 11888, 34048, 11878, 34150, 12026
 34157, 12019, 34173, 12003, 34286, 12140, 34291, 12135, 34295, 12131, 34393, 12283, 34408, 12268, 34411, 12265
 34416, 12260, 34510, 12416, 34515, 12411, 34520, 12406, 34537, 12389, 34542, 12384, 34666, 12510, 34667, 12509
 34673, 12503, 34800, 12626, 34912, 12764, 35019, 12907, 35020, 12906, 35035, 12891, 35036, 12890, 35138, 13038
 35164, 13012, 35175, 13001, 35260, 13166, 35271, 13155, 35276, 13150, 35289, 13137, 35292, 13134, 35295, 13131
 35398, 13278, 35404, 13272, 35415, 13261, 35510, 13416, 35521, 13405, 35649, 13527, 35670, 13506, 35673, 13503
 35753, 13673, 35779, 13647, 35890, 13786, 35900, 13776, 35903, 13773, 35920, 13756, 35922, 13754, 36004, 13922
 36017, 13909, 36035, 13891, 36129, 14047, 36132, 14044, 36261, 14165, 36276, 14150, 36280, 14146, 36384, 14292
 36408, 14268, 36519, 14407, 36524, 14402, 36526, 14400, 36529, 14397, 36636, 14540, 36655, 14521, 36659, 14517
 36673, 14503, 36760, 14666, 36763, 14663, 36796, 14630, 36886, 14790, 36898, 14778, 36900, 14776, 36912, 14764
 36915, 14761, 37007, 14919, 37174, 15002, 37265, 15161, 37268, 15158, 37401, 15275, 37539, 15387, 37543, 15383
 37546, 15380, 37665, 15511, 37762, 15664, 37775, 15651, 37790, 15636, 37794, 15632, 37800, 15626, 37897, 15779
 37908, 15768, 38003, 15923, 38048, 15878, 38142, 16034, 38174, 16002, 38258, 16168, 38287, 16139, 38293, 16133
 38299, 16127, 38391, 16285, 38397, 16279, 38422, 16254, 38507, 16419, 38530, 16396, 38643, 16533, 38646, 16530
 38653, 16523, 38773, 16653, 38779, 16647, 38785, 16641, 38884, 16792, 38916, 16760, 38919, 16757, 39007, 16919
 39045, 16881, 39153, 17023, 39167, 17009, 39259, 17167, 39282, 17144, 39296, 17130, 39298, 17128, 39399, 17277
 39420, 17256, 39518, 17408, 39521, 17405, 39630, 17546, 39634, 17542, 39637, 17539, 39652, 17524, 39757, 17669
 39881, 17795, 39882, 17794, 39895, 17781, 39900, 17776, 39919, 17757, 40028, 17898, 40036, 17890, 40144, 18032
 40174, 18002, 40266, 18160, 40398, 18278, 40507, 18419, 40512, 18414, 40514, 18412, 40635, 18541, 40646, 18530
 40660, 18516, 40668, 18508, 40763, 18663, 40778, 18648, 40899, 18777, 40918, 18758, 40920, 18756, 41010, 18916
 41029, 18897, 41041, 18885, 41128, 19048, 41255, 19171, 41268, 19158, 41285, 19141, 41384, 19292, 41386, 19290
 41403, 19273, 41408, 19268, 41415, 19261, 41529, 19397, 41530, 19396, 41533, 19393, 41542, 19384, 41544, 19382
 41549, 19377, 41628, 19548, 41639, 19537, 41666, 19510, 41668, 19508, 41764, 19662, 41774, 19652, 41777, 19649
 41880, 19796, 41886, 19790, 41891, 19785, 41903, 19773, 42008, 19918, 42023, 19903, 42133, 20043, 42139, 20037
 42161, 20015, 42257, 20169, 42263, 20163, 42278, 20148, 42286, 20140, 42544, 20382, 42641, 20535, 42642, 20534
 42659, 20517, 42669, 20507, 42775, 20651, 42783, 20643, 42787, 20639, 42923, 20753, 43010, 20916, 43022, 20904
 43128, 21048, 43156, 21020, 43263, 21163, 43272, 21154, 43294, 21132, 43382, 21294, 43385, 21291, 43391, 21285
 43406, 21270, 43421, 21255, 43506, 21420, 43510, 21416, 43515, 21411, 43530, 21396, 43545, 21381, 43643, 21533
 43648, 21528, 43651, 21525, 43662, 21514, 43666, 21510, 43770, 21656, 43775, 21651, 43779, 21647, 43900, 21776