 31503, 31504, 31505, 31506, 31507, 31508, 31509, 31510, 31511, 31512, 31513, 31514, 31515, 31516, 31517, 31518
 31519, 31520, 31521, 31522, 31523, 31524, 31525, 31526, 31527, 31528, 31529, 31530, 31531, 31532, 31533, 31534
 31535, 31536, 31537, 31538, 31539, 31540, 31541, 31542, 31543, 31544, 31545, 31546, 31547, 31548, 31549, 31550
 31628, 31629, 31630, 31631, 31632, 31633, 31634, 31635, 31636, 31637, 31638, 31639, 31640, 31641, 31642, 31643
 31644, 31645, 31646, 31647, 31648, 31649, 31650, 31651, 31652, 31653, 31654, 31655, 31656, 31657, 31658, 31659
 31660, 31661, 31662, 31663, 31664, 31665, 31666, 31667, 31668, 31669, 31670, 31671, 31672, 31673, 31674, 31675
 31753, 31754, 31755, 31756, 31757, 31758, 31759, 31760, 31761, 31762, 31763, 31764, 31765, 31766, 31767, 31768
 31769, 31770, 31771, 31772, 31773, 31774, 31775, 31776, 31777, 31778, 31779, 31780, 31781, 31782, 31783, 31784
 31785, 31786, 31787, 31788, 31789, 31790, 31791, 31792, 31793, 31794, 31795, 31796, 31797, 31798, 31799, 31800
 31878, 31879, 31880, 31881, 31882, 31883, 31884, 31885, 31886, 31887, 31888, 31889, 31890, 31891, 31892, 31893
 31894, 31895, 31896, 31897, 31898, 31899, 31900, 31901, 31902, 31903, 31904, 31905, 31906, 31907, 31908, 31909
 31910, 31911, 31912, 31913, 31914, 31915, 31916, 31917, 31918, 31919, 31920, 31921, 31922, 31923, 31924, 31925
 32003, 32004, 32005, 32006, 32007, 32008, 32009, 32010, 32011, 32012, 32013, 32014, 32015, 32016, 32017, 32018
 32019, 32020, 32021, 32022, 32023, 32024, 32025, 32026, 32027, 32028, 32029, 32030, 32031, 32032, 32033, 32034
 32035, 32036, 32037, 32038, 32039, 32040, 32041, 32042, 32043, 32044, 32045, 32046, 32047, 32048, 32049, 32050
 32128, 32129, 32130, 32131, 32132, 32133, 32134, 32135, 32136, 32137, 32138, 32139, 32140, 32141, 32142, 32143
 32144, 32145, 32146, 32147, 32148, 32149, 32150, 32151, 32152, 32153, 32154, 32155, 32156, 32157, 32158, 32159
 32160, 32161, 32162, 32163, 32164, 32165, 32166, 32167, 32168, 32169, 32170, 32171, 32172, 32173, 32174, 32175
 32253, 32254, 32255, 32256, 32257, 32258, 32259, 32260, 32261, 32262, 32263, 32264, 32265, 32266, 32267, 32268
 32269, 32270, 32271, 32272, 32273, 32274, 32275, 32276, 32277, 32278, 32279, 32280, 32281, 32282, 32283, 32284
 32285, 32286, 32287, 32288, 32289, 32290, 32291, 32292, 32293, 32294, 32295, 32296, 32297, 32298, 32299, 32300
 32378, 32379, 32380, 32381, 32382, 32383, 32384, 32385, 32386, 32387, 32388, 32389, 32390, 32391, 32392, 32393
 32394, 32395, 32396, 32397, 32398, 32399, 32400, 32401, 32402, 32403, 32404, 32405, 32406, 32407, 32408, 32409
 32410, 32411, 32412, 32413, 32414, 32415, 32416, 32417, 32418, 32419, 32420, 32421, 32422, 32423, 32424, 32425
 32503, 32504, 32505, 32506, 32507, 32508, 32509, 32510, 32511, 32512, 32513, 32514, 32515, 32516, 32517, 32518
 32519, 32520, 32521, 32522, 32523, 32524, 32525, 32526, 32527, 32528, 32529, 32530, 32531, 32532, 32533, 32534
 32535, 32536, 32537, 32538, 32539, 32540, 32541, 32542, 32543, 32544, 32545, 32546, 32547, 32548, 32549, 32550
 32628, 32629, 32630, 32631, 32632, 32633, 32634, 32635, 32636, 32637, 32638, 32639, 32640, 32641, 32642, 32643
 32644, 32645, 32646, 32647, 32648, 32649, 32650, 32651, 32652, 32653, 32654, 32655, 32656, 32657, 32658, 32659
 32660, 32661, 32662, 32663, 32664, 32665, 32666, 32667, 32668, 32669, 32670, 32671, 32672, 32673, 32674, 32675
 32753, 32754, 32755, 32756, 32757, 32758, 32759, 32760, 32761, 32762, 32763, 32764, 32765, 32766, 32767, 32768
 32769, 32770, 32771, 32772, 32773, 32774, 32775, 32776, 32777, 32778, 32779, 32780, 32781, 32782, 32783, 32784
 32785, 32786, 32787, 32788, 32789, 32790, 32791, 32792, 32793, 32794, 32795, 32796, 32797, 32798, 32799, 32800
 32878, 32879, 32880, 32881, 32882, 32883, 32884, 32885, 32886, 32887, 32888, 32889, 32890, 32891, 32892, 32893
 32894, 32895, 32896, 32897, 32898, 32899, 32900, 32901, 32902, 32903, 32904, 32905, 32906, 32907, 32908, 32909
 32910, 32911, 32912, 32913, 32914, 32915, 32916, 32917, 32918, 32919, 32920, 32921, 32922, 32923, 32924, 32925
 33003, 33004, 33005, 33006, 33007, 33008, 33009, 33010, 33011, 33012, 33013, 33014, 33015, 33016, 33017, 33018
 33019, 33020, 33021, 33022, 33023, 33024, 33025, 33026, 33027, 33028, 33029, 33030, 33031, 33032, 33033, 33034
 33035, 33036, 33037, 33038, 33039, 33040, 33041, 33042, 33043, 33044, 33045, 33046, 33047, 33048, 33049, 33050
 33128, 33129, 33130, 33131, 33132, 33133, 33134, 33135, 33136, 33137, 33138, 33139, 33140, 33141, 33142, 33143
 33144, 33145, 33146, 33147, 33148, 33149, 33150, 33151, 33152, 33153, 33154, 33155, 33156, 33157, 33158, 33159
 33160, 33161, 33162, 33163, 33164, 33165, 33166, 33167, 33168, 33169, 33170, 33171, 33172, 33173, 33174, 33175
 33253, 33254, 33255, 33256, 33257, 33258, 33259, 33260, 33261, 33262, 33263, 33264, 33265, 33266, 33267, 33268
 33269, 33270, 33271, 33272, 33273, 33274, 33275, 33276, 33277, 33278, 33279, 33280, 33281, 33282, 33283, 33284
 33285, 33286, 33287, 33288, 33289, 33290, 33291, 33292, 33293, 33294, 33295, 33296, 33297, 33298, 33299, 33300
 33378, 33379, 33380, 33381, 33382, 33383, 33384, 33385, 33386, 33387, 33388, 33389, 33390, 33391, 33392, 33393
 33394, 33395, 33396, 33397, 33398, 33399, 33400, 33401, 33402, 33403, 33404, 33405, 33406, 33407, 33408, 33409
 33410, 33411, 33412, 33413, 33414, 33415, 33416, 33417, 33418, 33419, 33420, 33421, 33422, 33423, 33424, 33425
 33503, 33504, 33505, 33506, 33507, 33508, 33509, 33510, 33511, 33512, 33513, 33514, 33515, 33516, 33517, 33518
 33519, 33520, 33521, 33522, 33523, 33524, 33525, 33526, 33527, 33528, 33529, 33530, 33531, 33532, 33533, 33534
 33535, 33536, 33537, 33538, 33539, 33540, 33541, 33542, 33543, 33544, 33545, 33546, 33547, 33548, 33549, 33550
 33628, 33629, 33630, 33631, 33632, 33633, 33634, 33635, 33636, 33637, 33638, 33639, 33640, 33641, 33642, 33643
 33644, 33645, 33646, 33647, 33648, 33649, 33650, 33651, 33652, 33653, 33654, 33655, 33656, 33657, 33658, 33659
 33660, 33661, 33662, 33663, 33664, 33665, 33666, 33667, 33668, 33669, 33670, 33671, 33672, 33673, 33674, 33675
 33753, 33754, 33755, 33756, 33757, 33758, 33759, 33760, 33761, 33762, 33763, 33764, 33765, 33766, 33767, 33768
 33769, 33770, 33771, 33772, 33773, 33774, 33775, 33776, 33777, 33778, 33779, 33780, 33781, 33782, 33783, 33784
 33785, 33786, 33787, 33788, 33789, 33790, 33791, 33792, 33793, 33794, 33795, 33796, 33797, 33798, 33799, 33800
 33878, 33879, 33880, 33881, 33882, 33883, 33884, 33885, 33886, 33887, 33888, 33889, 33890, 33891, 33892, 33893
 33894, 33895, 33896, 33897, 33898, 33899, 33900, 33901, 33902, 33903, 33904, 33905, 33906, 33907, 33908, 33909
 33910, 33911, 33912, 33913, 33914, 33915, 33916, 33917, 33918, 33919, 33920, 33921, 33922, 33923, 33924, 33925
 34003, 34004, 34005, 34006, 34007, 34008, 34009, 34010, 34011, 34012, 34013, 34014, 34015, 34016, 34017, 34018
 34019, 34020, 34021, 34022, 34023, 34024, 34025, 34026, 34027, 34028, 34029, 34030, 34031, 34032, 34033, 34034
 34035, 34036, 34037, 34038, 34039, 34040, 34041, 34042, 34043, 34044, 34045, 34046, 34047, 34048, 34049, 34050
 34128, 34129, 34130, 34131, 34132, 34133, 34134, 34135, 34136, 34137, 34138, 34139, 34140, 34141, 34142, 34143
 34144, 34145, 34146, 34147, 34148, 34149, 34150, 34151, 34152, 34153, 34154, 34155, 34156, 34157, 34158, 34159
 34160, 34161, 34162, 34163, 34164, 34165, 34166, 34167, 34168, 34169, 34170, 34171, 34172, 34173, 34174, 34175
 34253, 34254, 34255, 34256, 34257, 34258, 34259, 34260, 34261, 34262, 34263, 34264, 34265, 34266, 34267, 34268
 34269, 34270, 34271, 34272, 34273, 34274, 34275, 34276, 34277, 34278, 34279, 34280, 34281, 34282, 34283, 34284
 34285, 34286, 34287, 34288, 34289, 34290, 34291, 34292, 34293, 34294, 34295, 34296, 34297, 34298, 34299, 34300
 34378, 34379, 34380, 34381, 34382, 34383, 34384, 34385, 34386, 34387, 34388, 34389, 34390, 34391, 34392, 34393
 34394, 34395, 34396, 34397, 34398, 34399, 34400, 34401, 34402, 34403, 34404, 34405, 34406, 34407, 34408, 34409
 34410, 34411, 34412, 34413, 34414, 34415, 34416, 34417, 34418, 34419, 34420, 34421, 34422, 34423, 34424, 34425
 34503, 34504, 34505, 34506, 34507, 34508, 34509, 34510, 34511, 34512, 34513, 34514, 34515, 34516, 34517, 34518
 34519, 34520, 34521, 34522, 34523, 34524, 34525, 34526, 34527, 34528, 34529, 34530, 34531, 34532, 34533, 34534
 34535, 34536, 34537, 34538, 34539, 34540, 34541, 34542, 34543, 34544, 34545, 34546, 34547, 34548, 34549, 34550
 34628, 34629, 34630, 34631, 34632, 34633, 34634, 34635, 34636, 34637, 34638, 34639, 34640, 34641, 34642, 34643
 34644, 34645, 34646, 34647, 34648, 34649, 34650, 34651, 34652, 34653, 34654, 34655, 34656, 34657, 34658, 34659
 34660, 34661, 34662, 34663, 34664, 34665, 34666, 34667, 34668, 34669, 34670, 34671, 34672, 34673, 34674, 34675
 34753, 34754, 34755, 34756, 34757, 34758, 34759, 34760, 34761, 34762, 34763, 34764, 34765, 34766, 34767, 34768
 34769, 34770, 34771, 34772, 34773, 34774, 34775, 34776, 34777, 34778, 34779, 34780, 34781, 34782, 34783, 34784
 34785, 34786, 34787, 34788, 34789, 34790, 34791, 34792, 34793, 34794, 34795, 34796, 34797, 34798, 34799, 34800
 34878, 34879, 34880, 34881, 34882, 34883, 34884, 34885, 34886, 34887, 34888, 34889, 34890, 34891, 34892, 34893
 34894, 34895, 34896, 34897, 34898, 34899, 34900, 34901, 34902, 34903, 34904, 34905, 34906, 34907, 34908, 34909
 34910, 34911, 34912, 34913, 34914, 34915, 34916, 34917, 34918, 34919, 34920, 34921, 34922, 34923, 34924, 34925
 35003, 35004, 35005, 35006, 35007, 35008, 35009, 35010, 35011, 35012, 35013, 35014, 35015, 35016, 35017, 35018
 35019, 35020, 35021, 35022, 35023, 35024, 35025, 35026, 35027, 35028, 35029, 35030, 35031, 35032, 35033, 35034
 35035, 35036, 35037, 35038, 35039, 35040, 35041, 35042, 35043, 35044, 35045, 35046, 35047, 35048, 35049, 35050
 35128, 35129, 35130, 35131, 35132, 35133, 35134, 35135, 35136, 35137, 35138, 35139, 35140, 35141, 35142, 35143
 35144, 35145, 35146, 35147, 35148, 35149, 35150, 35151, 35152, 35153, 35154, 35155, 35156, 35157, 35158, 35159
 35160, 35161, 35162, 35163, 35164, 35165, 35166, 35167, 35168, 35169, 35170, 35171, 35172, 35173, 35174, 35175
 35253, 35254, 35255, 35256, 35257, 35258, 35259, 35260, 35261, 35262, 35263, 35264, 35265, 35266, 35267, 35268
 35269, 35270, 35271, 35272, 35273, 35274, 35275, 35276, 35277, 35278, 35279, 35280, 35281, 35282, 35283, 35284
 35285, 35286, 35287, 35288, 35289, 35290, 35291, 35292, 35293, 35294, 35295, 35296, 35297, 35298, 35299, 35300
 35378, 35379, 35380, 35381, 35382, 35383, 35384, 35385, 35386, 35387, 35388, 35389, 35390, 35391, 35392, 35393
 35394, 35395, 35396, 35397, 35398, 35399, 35400, 35401, 35402, 35403, 35404, 35405, 35406, 35407, 35408, 35409
 35410, 35411, 35412, 35413, 35414, 35415, 35416, 35417, 35418, 35419, 35420, 35421, 35422, 35423, 35424, 35425
 35503, 35504, 35505, 35506, 35507, 35508, 35509, 35510, 35511, 35512, 35513, 35514, 35515, 35516, 35517, 35518
 35519, 35520, 35521, 35522, 35523, 35524, 35525, 35526, 35527, 35528, 35529, 35530, 35531, 35532, 35533, 35534
 35535, 35536, 35537, 35538, 35539, 35540, 35541, 35542, 35543, 35544, 35545, 35546, 35547, 35548, 35549, 35550
 35628, 35629, 35630, 35631, 35632, 35633, 35634, 35635, 35636, 35637, 35638, 35639, 35640, 35641, 35642, 35643
 35644, 35645, 35646, 35647, 35648, 35649, 35650, 35651, 35652, 35653, 35654, 35655, 35656, 35657, 35658, 35659
 35660, 35661, 35662, 35663, 35664, 35665, 35666, 35667, 35668, 35669, 35670, 35671, 35672, 35673, 35674, 35675
 35753, 35754, 35755, 35756, 35757, 35758, 35759, 35760, 35761, 35762, 35763, 35764, 35765, 35766, 35767, 35768
 35769, 35770, 35771, 35772, 35773, 35774, 35775, 35776, 35777, 35778, 35779, 35780, 35781, 35782, 35783, 35784
 35785, 35786, 35787, 35788, 35789, 35790, 35791, 35792, 35793, 35794, 35795, 35796, 35797, 35798, 35799, 35800
 35878, 35879, 35880, 35881, 35882, 35883, 35884, 35885, 35886, 35887, 35888, 35889, 35890, 35891, 35892, 35893
 35894, 35895, 35896, 35897, 35898, 35899, 35900, 35901, 35902, 35903, 35904, 35905, 35906, 35907, 35908, 35909
 35910, 35911, 35912, 35913, 35914, 35915, 35916, 35917, 35918, 35919, 35920, 35921, 35922, 35923, 35924, 35925
 36003, 36004, 36005, 36006, 36007, 36008, 36009, 36010, 36011, 36012, 36013, 36014, 36015, 36016, 36017, 36018
 36019, 36020, 36021, 36022, 36023, 36024, 36025, 36026, 36027, 36028, 36029, 36030, 36031, 36032, 36033, 36034
 36035, 36036, 36037, 36038, 36039, 36040, 36041, 36042, 36043, 36044, 36045, 36046, 36047, 36048, 36049, 36050
 36128, 36129, 36130, 36131, 36132, 36133, 36134, 36135, 36136, 36137, 36138, 36139, 36140, 36141, 36142, 36143
 36144, 36145, 36146, 36147, 36148, 36149, 36150, 36151, 36152, 36153, 36154, 36155, 36156, 36157, 36158, 36159
 36160, 36161, 36162, 36163, 36164, 36165, 36166, 36167, 36168, 36169, 36170, 36171, 36172, 36173, 36174, 36175
 36253, 36254, 36255, 36256, 36257, 36258, 36259, 36260, 36261, 36262, 36263, 36264, 36265, 36266, 36267, 36268
 36269, 36270, 36271, 36272, 36273, 36274, 36275, 36276, 36277, 36278, 36279, 36280, 36281, 36282, 36283, 36284
 36285, 36286, 36287, 36288, 36289, 36290, 36291, 36292, 36293, 36294, 36295, 36296, 36297, 36298, 36299, 36300
 36378, 36379, 36380, 36381, 36382, 36383, 36384, 36385, 36386, 36387, 36388, 36389, 36390, 36391, 36392, 36393
 36394, 36395, 36396, 36397, 36398, 36399, 36400, 36401, 36402, 36403, 36404, 36405, 36406, 36407, 36408, 36409
 36410, 36411, 36412, 36413, 36414, 36415, 36416, 36417, 36418, 36419, 36420, 36421, 36422, 36423, 36424, 36425
 36503, 36504, 36505, 36506, 36507, 36508, 36509, 36510, 36511, 36512, 36513, 36514, 36515, 36516, 36517, 36518
 36519, 36520, 36521, 36522, 36523, 36524, 36525, 36526, 36527, 36528, 36529, 36530, 36531, 36532, 36533, 36534
 36535, 36536, 36537, 36538, 36539, 36540, 36541, 36542, 36543, 36544, 36545, 36546, 36547, 36548, 36549, 36550
 36628, 36629, 36630, 36631, 36632, 36633, 36634, 36635, 36636, 36637, 36638, 36639, 36640, 36641, 36642, 36643
 36644, 36645, 36646, 36647, 36648, 36649, 36650, 36651, 36652, 36653, 36654, 36655, 36656, 36657, 36658, 36659
 36660, 36661, 36662, 36663, 36664, 36665, 36666, 36667, 36668, 36669, 36670, 36671, 36672, 36673, 36674, 36675
 36753, 36754, 36755, 36756, 36757, 36758, 36759, 36760, 36761, 36762, 36763, 36764, 36765, 36766, 36767, 36768
 36769, 36770, 36771, 36772, 36773, 36774, 36775, 36776, 36777, 36778, 36779, 36780, 36781, 36782, 36783, 36784
 36785, 36786, 36787, 36788, 36789, 36790, 36791, 36792, 36793, 36794, 36795, 36796, 36797, 36798, 36799, 36800
 36878, 36879, 36880, 36881, 36882, 36883, 36884, 36885, 36886, 36887, 36888, 36889, 36890, 36891, 36892, 36893
 36894, 36895, 36896, 36897, 36898, 36899, 36900, 36901, 36902, 36903, 36904, 36905, 36906, 36907, 36908, 36909
 36910, 36911, 36912, 36913, 36914, 36915, 36916, 36917, 36918, 36919, 36920, 36921, 36922, 36923, 36924, 36925
 37003, 37004, 37005, 37006, 37007, 37008, 37009, 37010, 37011, 37012, 37013, 37014, 37015, 37016, 37017, 37018
 37019, 37020, 37021, 37022, 37023, 37024, 37025, 37026, 37027, 37028, 37029, 37030, 37031, 37032, 37033, 37034
 37035, 37036, 37037, 37038, 37039, 37040, 37041, 37042, 37043, 37044, 37045, 37046, 37047, 37048, 37049, 37050
 37128, 37129, 37130, 37131, 37132, 37133, 37134, 37135, 37136, 37137, 37138, 37139, 37140, 37141, 37142, 37143
 37144, 37145, 37146, 37147, 37148, 37149, 37150, 37151, 37152, 37153, 37154, 37155, 37156, 37157, 37158, 37159
 37160, 37161, 37162, 37163, 37164, 37165, 37166, 37167, 37168, 37169, 37170, 37171, 37172, 37173, 37174, 37175
 37253, 37254, 37255, 37256, 37257, 37258, 37259, 37260, 37261, 37262, 37263, 37264, 37265, 37266, 37267, 37268
 37269, 37270, 37271, 37272, 37273, 37274, 37275, 37276, 37277, 37278, 37279, 37280, 37281, 37282, 37283, 37284
 37285, 37286, 37287, 37288, 37289, 37290, 37291, 37292, 37293, 37294, 37295, 37296, 37297, 37298, 37299, 37300
 37378, 37379, 37380, 37381, 37382, 37383, 37384, 37385, 37386, 37387, 37388, 37389, 37390, 37391, 37392, 37393
 37394, 37395, 37396, 37397, 37398, 37399, 37400, 37401, 37402, 37403, 37404, 37405, 37406, 37407, 37408, 37409
 37410, 37411, 37412, 37413, 37414, 37415, 37416, 37417, 37418, 37419, 37420, 37421, 37422, 37423, 37424, 37425
 37503, 37504, 37505, 37506, 37507, 37508, 37509, 37510, 37511, 37512, 37513, 37514, 37515, 37516, 37517, 37518
 37519, 37520, 37521, 37522, 37523, 37524, 37525, 37526, 37527, 37528, 37529, 37530, 37531, 37532, 37533, 37534
 37535, 37536, 37537, 37538, 37539, 37540, 37541, 37542, 37543, 37544, 37545, 37546, 37547, 37548, 37549, 37550
 37628, 37629, 37630, 37631, 37632, 37633, 37634, 37635, 37636, 37637, 37638, 37639, 37640, 37641, 37642, 37643
 37644, 37645, 37646, 37647, 37648, 37649, 37650, 37651, 37652, 37653, 37654, 37655, 37656, 37657, 37658, 37659
 37660, 37661, 37662, 37663, 37664, 37665, 37666, 37667, 37668, 37669, 37670, 37671, 37672, 37673, 37674, 37675
 37753, 37754, 37755, 37756, 37757, 37758, 37759, 37760, 37761, 37762, 37763, 37764, 37765, 37766, 37767, 37768
 37769, 37770, 37771, 37772, 37773, 37774, 37775, 37776, 37777, 37778, 37779, 37780, 37781, 37782, 37783, 37784
 37785, 37786, 37787, 37788, 37789, 37790, 37791, 37792, 37793, 37794, 37795, 37796, 37797, 37798, 37799, 37800
 37878, 37879, 37880, 37881, 37882, 37883, 37884, 37885, 37886, 37887, 37888, 37889, 37890, 37891, 37892, 37893
 37894, 37895, 37896, 37897, 37898, 37899, 37900, 37901, 37902, 37903, 37904, 37905, 37906, 37907, 37908, 37909
 37910, 37911, 37912, 37913, 37914, 37915, 37916, 37917, 37918, 37919, 37920, 37921, 37922, 37923, 37924, 37925
 38003, 38004, 38005, 38006, 38007, 38008, 38009, 38010, 38011, 38012, 38013, 38014, 38015, 38016, 38017, 38018
 38019, 38020, 38021, 38022, 38023, 38024, 38025, 38026, 38027, 38028, 38029, 38030, 38031, 38032, 38033, 38034
 38035, 38036, 38037, 38038, 38039, 38040, 38041, 38042, 38043, 38044, 38045, 38046, 38047, 38048, 38049, 38050
 38128, 38129, 38130, 38131, 38132, 38133, 38134, 38135, 38136, 38137, 38138, 38139, 38140, 38141, 38142, 38143
 38144, 38145, 38146, 38147, 38148, 38149, 38150, 38151, 38152, 38153, 38154, 38155, 38156, 38157, 38158, 38159
 38160, 38161, 38162, 38163, 38164, 38165, 38166, 38167, 38168, 38169, 38170, 38171, 38172, 38173, 38174, 38175
 38253, 38254, 38255, 38256, 38257, 38258, 38259, 38260, 38261, 38262, 38263, 38264, 38265, 38266, 38267, 38268
 38269, 38270, 38271, 38272, 38273, 38274, 38275, 38276, 38277, 38278, 38279, 38280, 38281, 38282, 38283, 38284
 38285, 38286, 38287, 38288, 38289, 38290, 38291, 38292, 38293, 38294, 38295, 38296, 38297, 38298, 38299, 38300
 38378, 38379, 38380, 38381, 38382, 38383, 38384, 38385, 38386, 38387, 38388, 38389, 38390, 38391, 38392, 38393
 38394, 38395, 38396, 38397, 38398, 38399, 38400, 38401, 38402, 38403, 38404, 38405, 38406, 38407, 38408, 38409
 38410, 38411, 38412, 38413, 38414, 38415, 38416, 38417, 38418, 38419, 38420, 38421, 38422, 38423, 38424, 38425
 38503, 38504, 38505, 38506, 38507, 38508, 38509, 38510, 38511, 38512, 38513, 38514, 38515, 38516, 38517, 38518
 38519, 38520, 38521, 38522, 38523, 38524, 38525, 38526, 38527, 38528, 38529, 38530, 38531, 38532, 38533, 38534
 38535, 38536, 38537, 38538, 38539, 38540, 38541, 38542, 38543, 38544, 38545, 38546, 38547, 38548, 38549, 38550
 38628, 38629, 38630, 38631, 38632, 38633, 38634, 38635, 38636, 38637, 38638, 38639, 38640, 38641, 38642, 38643
 38644, 38645, 38646, 38647, 38648, 38649, 38650, 38651, 38652, 38653, 38654, 38655, 38656, 38657, 38658, 38659
 38660, 38661, 38662, 38663, 38664, 38665, 38666, 38667, 38668, 38669, 38670, 38671, 38672, 38673, 38674, 38675
 38753, 38754, 38755, 38756, 38757, 38758, 38759, 38760, 38761, 38762, 38763, 38764, 38765, 38766, 38767, 38768
 38769, 38770, 38771, 38772, 38773, 38774, 38775, 38776, 38777, 38778, 38779, 38780, 38781, 38782, 38783, 38784
 38785, 38786, 38787, 38788, 38789, 38790, 38791, 38792, 38793, 38794, 38795, 38796, 38797, 38798, 38799, 38800
 38878, 38879, 38880, 38881, 38882, 38883, 38884, 38885, 38886, 38887, 38888, 38889, 38890, 38891, 38892, 38893
 38894, 38895, 38896, 38897, 38898, 38899, 38900, 38901, 38902, 38903, 38904, 38905, 38906, 38907, 38908, 38909
 38910, 38911, 38912, 38913, 38914, 38915, 38916, 38917, 38918, 38919, 38920, 38921, 38922, 38923, 38924, 38925
 39003, 39004, 39005, 39006, 39007, 39008, 39009, 39010, 39011, 39012, 39013, 39014, 39015, 39016, 39017, 39018
 39019, 39020, 39021, 39022, 39023, 39024, 39025, 39026, 39027, 39028, 39029, 39030, 39031, 39032, 39033, 39034
 39035, 39036, 39037, 39038, 39039, 39040, 39041, 39042, 39043, 39044, 39045, 39046, 39047, 39048, 39049, 39050
 39128, 39129, 39130, 39131, 39132, 39133, 39134, 39135, 39136, 39137, 39138, 39139, 39140, 39141, 39142, 39143
 39144, 39145, 39146, 39147, 39148, 39149, 39150, 39151, 39152, 39153, 39154, 39155, 39156, 39157, 39158, 39159
 39160, 39161, 39162, 39163, 39164, 39165, 39166, 39167, 39168, 39169, 39170, 39171, 39172, 39173, 39174, 39175
 39253, 39254, 39255, 39256, 39257, 39258, 39259, 39260, 39261, 39262, 39263, 39264, 39265, 39266, 39267, 39268
 39269, 39270, 39271, 39272, 39273, 39274, 39275, 39276, 39277, 39278, 39279, 39280, 39281, 39282, 39283, 39284
 39285, 39286, 39287, 39288, 39289, 39290, 39291, 39292, 39293, 39294, 39295, 39296, 39297, 39298, 39299, 39300
 39378, 39379, 39380, 39381, 39382, 39383, 39384, 39385, 39386, 39387, 39388, 39389, 39390, 39391, 39392, 39393
 39394, 39395, 39396, 39397, 39398, 39399, 39400, 39401, 39402, 39403, 39404, 39405, 39406, 39407, 39408, 39409
 39410, 39411, 39412, 39413, 39414, 39415, 39416, 39417, 39418, 39419, 39420, 39421, 39422, 39423, 39424, 39425
 39503, 39504, 39505, 39506, 39507, 39508, 39509, 39510, 39511, 39512, 39513, 39514, 39515, 39516, 39517, 39518
 39519, 39520, 39521, 39522, 39523, 39524, 39525, 39526, 39527, 39528, 39529, 39530, 39531, 39532, 39533, 39534
 39535, 39536, 39537, 39538, 39539, 39540, 39541, 39542, 39543, 39544, 39545, 39546, 39547, 39548, 39549, 39550
 39628, 39629, 39630, 39631, 39632, 39633, 39634, 39635, 39636, 39637, 39638, 39639, 39640, 39641, 39642, 39643
 39644, 39645, 39646, 39647, 39648, 39649, 39650, 39651, 39652, 39653, 39654, 39655, 39656, 39657, 39658, 39659
 39660, 39661, 39662, 39663, 39664, 39665, 39666, 39667, 39668, 39669, 39670, 39671, 39672, 39673, 39674, 39675
 39753, 39754, 39755, 39756, 39757, 39758, 39759, 39760, 39761, 39762, 39763, 39764, 39765, 39766, 39767, 39768
 39769, 39770, 39771, 39772, 39773, 39774, 39775, 39776, 39777, 39778, 39779, 39780, 39781, 39782, 39783, 39784
 39785, 39786, 39787, 39788, 39789, 39790, 39791, 39792, 39793, 39794, 39795, 39796, 39797, 39798, 39799, 39800
 39878, 39879, 39880, 39881, 39882, 39883, 39884, 39885, 39886, 39887, 39888, 39889, 39890, 39891, 39892, 39893
 39894, 39895, 39896, 39897, 39898, 39899, 39900, 39901, 39902, 39903, 39904, 39905, 39906, 39907, 39908, 39909
 39910, 39911, 39912, 39913, 39914, 39915, 39916, 39917, 39918, 39919, 39920, 39921, 39922, 39923, 39924, 39925
 40003, 40004, 40005, 40006, 40007, 40008, 40009, 40010, 40011, 40012, 40013, 40014, 40015, 40016, 40017, 40018
 40019, 40020, 40021, 40022, 40023, 40024, 40025, 40026, 40027, 40028, 40029, 40030, 40031, 40032, 40033, 40034
 40035, 40036, 40037, 40038, 40039, 40040, 40041, 40042, 40043, 40044, 40045, 40046, 40047, 40048, 40049, 40050
 40128, 40129, 40130, 40131, 40132, 40133, 40134, 40135, 40136, 40137, 40138, 40139, 40140, 40141, 40142, 40143
 40144, 40145, 40146, 40147, 40148, 40149, 40150, 40151, 40152, 40153, 40154, 40155, 40156, 40157, 40158, 40159
 40160, 40161, 40162, 40163, 40164, 40165, 40166, 40167, 40168, 40169, 40170, 40171, 40172, 40173, 40174, 40175
 40253, 40254, 40255, 40256, 40257, 40258, 40259, 40260, 40261, 40262, 40263, 40264, 40265, 40266, 40267, 40268
 40269, 40270, 40271, 40272, 40273, 40274, 40275, 40276, 40277, 40278, 40279, 40280, 40281, 40282, 40283, 40284
 40285, 40286, 40287, 40288, 40289, 40290, 40291, 40292, 40293, 40294, 40295, 40296, 40297, 40298, 40299, 40300
 40378, 40379, 40380, 40381, 40382, 40383, 40384, 40385, 40386, 40387, 40388, 40389, 40390, 40391, 40392, 40393
 40394, 40395, 40396, 40397, 40398, 40399, 40400, 40401, 40402, 40403, 40404, 40405, 40406, 40407, 40408, 40409
 40410, 40411, 40412, 40413, 40414, 40415, 40416, 40417, 40418, 40419, 40420, 40421, 40422, 40423, 40424, 40425
 40503, 40504, 40505, 40506, 40507, 40508, 40509, 40510, 40511, 40512, 40513, 40514, 40515, 40516, 40517, 40518
 40519, 40520, 40521, 40522, 40523, 40524, 40525, 40526, 40527, 40528, 40529, 40530, 40531, 40532, 40533, 40534
 40535, 40536, 40537, 40538, 40539, 40540, 40541, 40542, 40543, 40544, 40545, 40546, 40547, 40548, 40549, 40550
 40628, 40629, 40630, 40631, 40632, 40633, 40634, 40635, 40636, 40637, 40638, 40639, 40640, 40641, 40642, 40643
 40644, 40645, 40646, 40647, 40648, 40649, 40650, 40651, 40652, 40653, 40654, 40655, 40656, 40657, 40658, 40659
 40660, 40661, 40662, 40663, 40664, 40665, 40666, 40667, 40668, 40669, 40670, 40671, 40672, 40673, 40674, 40675
 40753, 40754, 40755, 40756, 40757, 40758, 40759, 40760, 40761, 40762, 40763, 40764, 40765, 40766, 40767, 40768
 40769, 40770, 40771, 40772, 40773, 40774, 40775, 40776, 40777, 40778, 40779, 40780, 40781, 40782, 40783, 40784
 40785, 40786, 40787, 40788, 40789, 40790, 40791, 40792, 40793, 40794, 40795, 40796, 40797, 40798, 40799, 40800
 40878, 40879, 40880, 40881, 40882, 40883, 40884, 40885, 40886, 40887, 40888, 40889, 40890, 40891, 40892, 40893
 40894, 40895, 40896, 40897, 40898, 40899, 40900, 40901, 40902, 40903, 40904, 40905, 40906, 40907, 40908, 40909
 40910, 40911, 40912, 40913, 40914, 40915, 40916, 40917, 40918, 40919, 40920, 40921, 40922, 40923, 40924, 40925
 41003, 41004, 41005, 41006, 41007, 41008, 41009, 41010, 41011, 41012, 41013, 41014, 41015, 41016, 41017, 41018
 41019, 41020, 41021, 41022, 41023, 41024, 41025, 41026, 41027, 41028, 41029, 41030, 41031, 41032, 41033, 41034
 41035, 41036, 41037, 41038, 41039, 41040, 41041, 41042, 41043, 41044, 41045, 41046, 41047, 41048, 41049, 41050
 41128, 41129, 41130, 41131, 41132, 41133, 41134, 41135, 41136, 41137, 41138, 41139, 41140, 41141, 41142, 41143
 41144, 41145, 41146, 41147, 41148, 41149, 41150, 41151, 41152, 41153, 41154, 41155, 41156, 41157, 41158, 41159
 41160, 41161, 41162, 41163, 41164, 41165, 41166, 41167, 41168, 41169, 41170, 41171, 41172, 41173, 41174, 41175
 41253, 41254, 41255, 41256, 41257, 41258, 41259, 41260, 41261, 41262, 41263, 41264, 41265, 41266, 41267, 41268
 41269, 41270, 41271, 41272, 41273, 41274, 41275, 41276, 41277, 41278, 41279, 41280, 41281, 41282, 41283, 41284
 41285, 41286, 41287, 41288, 41289, 41290, 41291, 41292, 41293, 41294, 41295, 41296, 41297, 41298, 41299, 41300
 41378, 41379, 41380, 41381, 41382, 41383, 41384, 41385, 41386, 41387, 41388, 41389, 41390, 41391, 41392, 41393
 41394, 41395, 41396, 41397, 41398, 41399, 41400, 41401, 41402, 41403, 41404, 41405, 41406, 41407, 41408, 41409
 41410, 41411, 41412, 41413, 41414, 41415, 41416, 41417, 41418, 41419, 41420, 41421, 41422, 41423, 41424, 41425
 41503, 41504, 41505, 41506, 41507, 41508, 41509, 41510, 41511, 41512, 41513, 41514, 41515, 41516, 41517, 41518
 41519, 41520, 41521, 41522, 41523, 41524, 41525, 41526, 41527, 41528, 41529, 41530, 41531, 41532, 41533, 41534
 41535, 41536, 41537, 41538, 41539, 41540, 41541, 41542, 41543, 41544, 41545, 41546, 41547, 41548, 41549, 41550
 41628, 41629, 41630, 41631, 41632, 41633, 41634, 41635, 41636, 41637, 41638, 41639, 41640, 41641, 41642, 41643
 41644, 41645, 41646, 41647, 41648, 41649, 41650, 41651, 41652, 41653, 41654, 41655, 41656, 41657, 41658, 41659
 41660, 41661, 41662, 41663, 41664, 41665, 41666, 41667, 41668, 41669, 41670, 41671, 41672, 41673, 41674, 41675
 41753, 41754, 41755, 41756, 41757, 41758, 41759, 41760, 41761, 41762, 41763, 41764, 41765, 41766, 41767, 41768
 41769, 41770, 41771, 41772, 41773, 41774, 41775, 41776, 41777, 41778, 41779, 41780, 41781, 41782, 41783, 41784
 41785, 41786, 41787, 41788, 41789, 41790, 41791, 41792, 41793, 41794, 41795, 41796, 41797, 41798, 41799, 41800
 41878, 41879, 41880, 41881, 41882, 41883, 41884, 41885, 41886, 41887, 41888, 41889, 41890, 41891, 41892, 41893
 41894, 41895, 41896, 41897, 41898, 41899, 41900, 41901, 41902, 41903, 41904, 41905, 41906, 41907, 41908, 41909
 41910, 41911, 41912, 41913, 41914, 41915, 41916, 41917, 41918, 41919, 41920, 41921, 41922, 41923, 41924, 41925
 42003, 42004, 42005, 42006, 42007, 42008, 42009, 42010, 42011, 42012, 42013, 42014, 42015, 42016, 42017, 42018
 42019, 42020, 42021, 42022, 42023, 42024, 42025, 42026, 42027, 42028, 42029, 42030, 42031, 42032, 42033, 42034
 42035, 42036, 42037, 42038, 42039, 42040, 42041, 42042, 42043, 42044, 42045, 42046, 42047, 42048, 42049, 42050
 42128, 42129, 42130, 42131, 42132, 42133, 42134, 42135, 42136, 42137, 42138, 42139, 42140, 42141, 42142, 42143
 42144, 42145, 42146, 42147, 42148, 42149, 42150, 42151, 42152, 42153, 42154, 42155, 42156, 42157, 42158, 42159
 42160, 42161, 42162, 42163, 42164, 42165, 42166, 42167, 42168, 42169, 42170, 42171, 42172, 42173, 42174, 42175
 42253, 42254, 42255, 42256, 42257, 42258, 42259, 42260, 42261, 42262, 42263, 42264, 42265, 42266, 42267, 42268
 42269, 42270, 42271, 42272, 42273, 42274, 42275, 42276, 42277, 42278, 42279, 42280, 42281, 42282, 42283, 42284
 42285, 42286, 42287, 42288, 42289, 42290, 42291, 42292, 42293, 42294, 42295, 42296, 42297, 42298, 42299, 42300
 42378, 42379, 42380, 42381, 42382, 42383, 42384, 42385, 42386, 42387, 42388, 42389, 42390, 42391, 42392, 42393
 42394, 42395, 42396, 42397, 42398, 42399, 42400, 42401, 42402, 42403, 42404, 42405, 42406, 42407, 42408, 42409
 42410, 42411, 42412, 42413, 42414, 42415, 42416, 42417, 42418, 42419, 42420, 42421, 42422, 42423, 42424, 42425
 42503, 42504, 42505, 42506, 42507, 42508, 42509, 42510, 42511, 42512, 42513, 42514, 42515, 42516, 42517, 42518
 42519, 42520, 42521, 42522, 42523, 42524, 42525, 42526, 42527, 42528, 42529, 42530, 42531, 42532, 42533, 42534
 42535, 42536, 42537, 42538, 42539, 42540, 42541, 42542, 42543, 42544, 42545, 42546, 42547, 42548, 42549, 42550