  9423,  9422,  9421,  9420,  9419,  9418,  9417,  9416,  9415,  9414,  9413,  9412,  9411,  9410,  9409,  9408
  9407,  9406,  9405,  9404,  9403,  9402,  9401,  9400,  9399,  9398,  9397,  9396,  9395,  9394,  9393,  9392
  9391,  9390,  9389,  9388,  9387,  9386,  9385,  9384,  9383,  9382,  9381,  9380,  9379,  9378,  9377,  9376
  9548,  9547,  9546,  9545,  9544,  9543,  9542,  9541,  9540,  9539,  9538,  9537,  9536,  9535,  9534,  9533
  9532,  9531,  9530,  9529,  9528,  9527,  9526,  9525,  9524,  9523,  9522,  9521,  9520,  9519,  9518,  9517
  9516,  9515,  9514,  9513,  9512,  9511,  9510,  9509,  9508,  9507,  9506,  9505,  9504,  9503,  9502,  9501
  9673,  9672,  9671,  9670,  9669,  9668,  9667,  9666,  9665,  9664,  9663,  9662,  9661,  9660,  9659,  9658
  9657,  9656,  9655,  9654,  9653,  9652,  9651,  9650,  9649,  9648,  9647,  9646,  9645,  9644,  9643,  9642
  9641,  9640,  9639,  9638,  9637,  9636,  9635,  9634,  9633,  9632,  9631,  9630,  9629,  9628,  9627,  9626
  9798,  9797,  9796,  9795,  9794,  9793,  9792,  9791,  9790,  9789,  9788,  9787,  9786,  9785,  9784,  9783
  9782,  9781,  9780,  9779,  9778,  9777,  9776,  9775,  9774,  9773,  9772,  9771,  9770,  9769,  9768,  9767
  9766,  9765,  9764,  9763,  9762,  9761,  9760,  9759,  9758,  9757,  9756,  9755,  9754,  9753,  9752,  9751
  9923,  9922,  9921,  9920,  9919,  9918,  9917,  9916,  9915,  9914,  9913,  9912,  9911,  9910,  9909,  9908
  9907,  9906,  9905,  9904,  9903,  9902,  9901,  9900,  9899,  9898,  9897,  9896,  9895,  9894,  9893,  9892
  9891,  9890,  9889,  9888,  9887,  9886,  9885,  9884,  9883,  9882,  9881,  9880,  9879,  9878,  9877,  9876
 10048, 10047, 10046, 10045, 10044, 10043, 10042, 10041, 10040, 10039, 10038, 10037, 10036, 10035, 10034, 10033
 10032, 10031, 10030, 10029, 10028, 10027, 10026, 10025, 10024, 10023, 10022, 10021, 10020, 10019, 10018, 10017
 10016, 10015, 10014, 10013, 10012, 10011, 10010, 10009, 10008, 10007, 10006, 10005, 10004, 10003, 10002, 10001
 10173, 10172, 10171, 10170, 10169, 10168, 10167, 10166, 10165, 10164, 10163, 10162, 10161, 10160, 10159, 10158
 10157, 10156, 10155, 10154, 10153, 10152, 10151, 10150, 10149, 10148, 10147, 10146, 10145, 10144, 10143, 10142
 10141, 10140, 10139, 10138, 10137, 10136, 10135, 10134, 10133, 10132, 10131, 10130, 10129, 10128, 10127, 10126
 10298, 10297, 10296, 10295, 10294, 10293, 10292, 10291, 10290, 10289, 10288, 10287, 10286, 10285, 10284, 10283
 10282, 10281, 10280, 10279, 10278, 10277, 10276, 10275, 10274, 10273, 10272, 10271, 10270, 10269, 10268, 10267
 10266, 10265, 10264, 10263, 10262, 10261, 10260, 10259, 10258, 10257, 10256, 10255, 10254, 10253, 10252, 10251
 10423, 10422, 10421, 10420, 10419, 10418, 10417, 10416, 10415, 10414, 10413, 10412, 10411, 10410, 10409, 10408
 10407, 10406, 10405, 10404, 10403, 10402, 10401, 10400, 10399, 10398, 10397, 10396, 10395, 10394, 10393, 10392
 10391, 10390, 10389, 10388, 10387, 10386, 10385, 10384, 10383, 10382, 10381, 10380, 10379, 10378, 10377, 10376
 10548, 10547, 10546, 10545, 10544, 10543, 10542, 10541, 10540, 10539, 10538, 10537, 10536, 10535, 10534, 10533
 10532, 10531, 10530, 10529, 10528, 10527, 10526, 10525, 10524, 10523, 10522, 10521, 10520, 10519, 10518, 10517
 10516, 10515, 10514, 10513, 10512, 10511, 10510, 10509, 10508, 10507, 10506, 10505, 10504, 10503, 10502, 10501
 10673, 10672, 10671, 10670, 10669, 10668, 10667, 10666, 10665, 10664, 10663, 10662, 10661, 10660, 10659, 10658
 10657, 10656, 10655, 10654, 10653, 10652, 10651, 10650, 10649, 10648, 10647, 10646, 10645, 10644, 10643, 10642
 10641, 10640, 10639, 10638, 10637, 10636, 10635, 10634, 10633, 10632, 10631, 10630, 10629, 10628, 10627, 10626
 10798, 10797, 10796, 10795, 10794, 10793, 10792, 10791, 10790, 10789, 10788, 10787, 10786, 10785, 10784, 10783
 10782, 10781, 10780, 10779, 10778, 10777, 10776, 10775, 10774, 10773, 10772, 10771, 10770, 10769, 10768, 10767
 10766, 10765, 10764, 10763, 10762, 10761, 10760, 10759, 10758, 10757, 10756, 10755, 10754, 10753, 10752, 10751
 10923, 10922, 10921, 10920, 10919, 10918, 10917, 10916, 10915, 10914, 10913, 10912, 10911, 10910, 10909, 10908
 10907, 10906, 10905, 10904, 10903, 10902, 10901, 10900, 10899, 10898, 10897, 10896, 10895, 10894, 10893, 10892
 10891, 10890, 10889, 10888, 10887, 10886, 10885, 10884, 10883, 10882, 10881, 10880, 10879, 10878, 10877, 10876
 11048, 11047, 11046, 11045, 11044, 11043, 11042, 11041, 11040, 11039, 11038, 11037, 11036, 11035, 11034, 11033
 11032, 11031, 11030, 11029, 11028, 11027, 11026, 11025, 11024, 11023, 11022, 11021, 11020, 11019, 11018, 11017
 11016, 11015, 11014, 11013, 11012, 11011, 11010, 11009, 11008, 11007, 11006, 11005, 11004, 11003, 11002, 11001
 11173, 11172, 11171, 11170, 11169, 11168, 11167, 11166, 11165, 11164, 11163, 11162, 11161, 11160, 11159, 11158
 11157, 11156, 11155, 11154, 11153, 11152, 11151, 11150, 11149, 11148, 11147, 11146, 11145, 11144, 11143, 11142
 11141, 11140, 11139, 11138, 11137, 11136, 11135, 11134, 11133, 11132, 11131, 11130, 11129, 11128, 11127, 11126
 11298, 11297, 11296, 11295, 11294, 11293, 11292, 11291, 11290, 11289, 11288, 11287, 11286, 11285, 11284, 11283
 11282, 11281, 11280, 11279, 11278, 11277, 11276, 11275, 11274, 11273, 11272, 11271, 11270, 11269, 11268, 11267
 11266, 11265, 11264, 11263, 11262, 11261, 11260, 11259, 11258, 11257, 11256, 11255, 11254, 11253, 11252, 11251
 11423, 11422, 11421, 11420, 11419, 11418, 11417, 11416, 11415, 11414, 11413, 11412, 11411, 11410, 11409, 11408
 11407, 11406, 11405, 11404, 11403, 11402, 11401, 11400, 11399, 11398, 11397, 11396, 11395, 11394, 11393, 11392
 11391, 11390, 11389, 11388, 11387, 11386, 11385, 11384, 11383, 11382, 11381, 11380, 11379, 11378, 11377, 11376
 11548, 11547, 11546, 11545, 11544, 11543, 11542, 11541, 11540, 11539, 11538, 11537, 11536, 11535, 11534, 11533
 11532, 11531, 11530, 11529, 11528, 11527, 11526, 11525, 11524, 11523, 11522, 11521, 11520, 11519, 11518, 11517
 11516, 11515, 11514, 11513, 11512, 11511, 11510, 11509, 11508, 11507, 11506, 11505, 11504, 11503, 11502, 11501
 11673, 11672, 11671, 11670, 11669, 11668, 11667, 11666, 11665, 11664, 11663, 11662, 11661, 11660, 11659, 11658
 11657, 11656, 11655, 11654, 11653, 11652, 11651, 11650, 11649, 11648, 11647, 11646, 11645, 11644, 11643, 11642
 11641, 11640, 11639, 11638, 11637, 11636, 11635, 11634, 11633, 11632, 11631, 11630, 11629, 11628, 11627, 11626
 11798, 11797, 11796, 11795, 11794, 11793, 11792, 11791, 11790, 11789, 11788, 11787, 11786, 11785, 11784, 11783
 11782, 11781, 11780, 11779, 11778, 11777, 11776, 11775, 11774, 11773, 11772, 11771, 11770, 11769, 11768, 11767
 11766, 11765, 11764, 11763, 11762, 11761, 11760, 11759, 11758, 11757, 11756, 11755, 11754, 11753, 11752, 11751
 11923, 11922, 11921, 11920, 11919, 11918, 11917, 11916, 11915, 11914, 11913, 11912, 11911, 11910, 11909, 11908
 11907, 11906, 11905, 11904, 11903, 11902, 11901, 11900, 11899, 11898, 11897, 11896, 11895, 11894, 11893, 11892
 11891, 11890, 11889, 11888, 11887, 11886, 11885, 11884, 11883, 11882, 11881, 11880, 11879, 11878, 11877, 11876
 12048, 12047, 12046, 12045, 12044, 12043, 12042, 12041, 12040, 12039, 12038, 12037, 12036, 12035, 12034, 12033
 12032, 12031, 12030, 12029, 12028, 12027, 12026, 12025, 12024, 12023, 12022, 12021, 12020, 12019, 12018, 12017
 12016, 12015, 12014, 12013, 12012, 12011, 12010, 12009, 12008, 12007, 12006, 12005, 12004, 12003, 12002, 12001
 12173, 12172, 12171, 12170, 12169, 12168, 12167, 12166, 12165, 12164, 12163, 12162, 12161, 12160, 12159, 12158
 12157, 12156, 12155, 12154, 12153, 12152, 12151, 12150, 12149, 12148, 12147, 12146, 12145, 12144, 12143, 12142
 12141, 12140, 12139, 12138, 12137, 12136, 12135, 12134, 12133, 12132, 12131, 12130, 12129, 12128, 12127, 12126
 12298, 12297, 12296, 12295, 12294, 12293, 12292, 12291, 12290, 12289, 12288, 12287, 12286, 12285, 12284, 12283
 12282, 12281, 12280, 12279, 12278, 12277, 12276, 12275, 12274, 12273, 12272, 12271, 12270, 12269, 12268, 12267
 12266, 12265, 12264, 12263, 12262, 12261, 12260, 12259, 12258, 12257, 12256, 12255, 12254, 12253, 12252, 12251
 12423, 12422, 12421, 12420, 12419, 12418, 12417, 12416, 12415, 12414, 12413, 12412, 12411, 12410, 12409, 12408
 12407, 12406, 12405, 12404, 12403, 12402, 12401, 12400, 12399, 12398, 12397, 12396, 12395, 12394, 12393, 12392
 12391, 12390, 12389, 12388, 12387, 12386, 12385, 12384, 12383, 12382, 12381, 12380, 12379, 12378, 12377, 12376
 12548, 12547, 12546, 12545, 12544, 12543, 12542, 12541, 12540, 12539, 12538, 12537, 12536, 12535, 12534, 12533
 12532, 12531, 12530, 12529, 12528, 12527, 12526, 12525, 12524, 12523, 12522, 12521, 12520, 12519, 12518, 12517
 12516, 12515, 12514, 12513, 12512, 12511, 12510, 12509, 12508, 12507, 12506, 12505, 12504, 12503, 12502, 12501
 12673, 12672, 12671, 12670, 12669, 12668, 12667, 12666, 12665, 12664, 12663, 12662, 12661, 12660, 12659, 12658
 12657, 12656, 12655, 12654, 12653, 12652, 12651, 12650, 12649, 12648, 12647, 12646, 12645, 12644, 12643, 12642
 12641, 12640, 12639, 12638, 12637, 12636, 12635, 12634, 12633, 12632, 12631, 12630, 12629, 12628, 12627, 12626
 12798, 12797, 12796, 12795, 12794, 12793, 12792, 12791, 12790, 12789, 12788, 12787, 12786, 12785, 12784, 12783
 12782, 12781, 12780, 12779, 12778, 12777, 12776, 12775, 12774, 12773, 12772, 12771, 12770, 12769, 12768, 12767
 12766, 12765, 12764, 12763, 12762, 12761, 12760, 12759, 12758, 12757, 12756, 12755, 12754, 12753, 12752, 12751
 12923, 12922, 12921, 12920, 12919, 12918, 12917, 12916, 12915, 12914, 12913, 12912, 12911, 12910, 12909, 12908
 12907, 12906, 12905, 12904, 12903, 12902, 12901, 12900, 12899, 12898, 12897, 12896, 12895, 12894, 12893, 12892
 12891, 12890, 12889, 12888, 12887, 12886, 12885, 12884, 12883, 12882, 12881, 12880, 12879, 12878, 12877, 12876
 13048, 13047, 13046, 13045, 13044, 13043, 13042, 13041, 13040, 13039, 13038, 13037, 13036, 13035, 13034, 13033
 13032, 13031, 13030, 13029, 13028, 13027, 13026, 13025, 13024, 13023, 13022, 13021, 13020, 13019, 13018, 13017
 13016, 13015, 13014, 13013, 13012, 13011, 13010, 13009, 13008, 13007, 13006, 13005, 13004, 13003, 13002, 13001
 13173, 13172, 13171, 13170, 13169, 13168, 13167, 13166, 13165, 13164, 13163, 13162, 13161, 13160, 13159, 13158
 13157, 13156, 13155, 13154, 13153, 13152, 13151, 13150, 13149, 13148, 13147, 13146, 13145, 13144, 13143, 13142
 13141, 13140, 13139, 13138, 13137, 13136, 13135, 13134, 13133, 13132, 13131, 13130, 13129, 13128, 13127, 13126
 13298, 13297, 13296, 13295, 13294, 13293, 13292, 13291, 13290, 13289, 13288, 13287, 13286, 13285, 13284, 13283
 13282, 13281, 13280, 13279, 13278, 13277, 13276, 13275, 13274, 13273, 13272, 13271, 13270, 13269, 13268, 13267
 13266, 13265, 13264, 13263, 13262, 13261, 13260, 13259, 13258, 13257, 13256, 13255, 13254, 13253, 13252, 13251
 13423, 13422, 13421, 13420, 13419, 13418, 13417, 13416, 13415, 13414, 13413, 13412, 13411, 13410, 13409, 13408
 13407, 13406, 13405, 13404, 13403, 13402, 13401, 13400, 13399, 13398, 13397, 13396, 13395, 13394, 13393, 13392
 13391, 13390, 13389, 13388, 13387, 13386, 13385, 13384, 13383, 13382, 13381, 13380, 13379, 13378, 13377, 13376
 13548, 13547, 13546, 13545, 13544, 13543, 13542, 13541, 13540, 13539, 13538, 13537, 13536, 13535, 13534, 13533
 13532, 13531, 13530, 13529, 13528, 13527, 13526, 13525, 13524, 13523, 13522, 13521, 13520, 13519, 13518, 13517
 13516, 13515, 13514, 13513, 13512, 13511, 13510, 13509, 13508, 13507, 13506, 13505, 13504, 13503, 13502, 13501
 13673, 13672, 13671, 13670, 13669, 13668, 13667, 13666, 13665, 13664, 13663, 13662, 13661, 13660, 13659, 13658
 13657, 13656, 13655, 13654, 13653, 13652, 13651, 13650, 13649, 13648, 13647, 13646, 13645, 13644, 13643, 13642
 13641, 13640, 13639, 13638, 13637, 13636, 13635, 13634, 13633, 13632, 13631, 13630, 13629, 13628, 13627, 13626
 13798, 13797, 13796, 13795, 13794, 13793, 13792, 13791, 13790, 13789, 13788, 13787, 13786, 13785, 13784, 13783
 13782, 13781, 13780, 13779, 13778, 13777, 13776, 13775, 13774, 13773, 13772, 13771, 13770, 13769, 13768, 13767
 13766, 13765, 13764, 13763, 13762, 13761, 13760, 13759, 13758, 13757, 13756, 13755, 13754, 13753, 13752, 13751
 13923, 13922, 13921, 13920, 13919, 13918, 13917, 13916, 13915, 13914, 13913, 13912, 13911, 13910, 13909, 13908
 13907, 13906, 13905, 13904, 13903, 13902, 13901, 13900, 13899, 13898, 13897, 13896, 13895, 13894, 13893, 13892
 13891, 13890, 13889, 13888, 13887, 13886, 13885, 13884, 13883, 13882, 13881, 13880, 13879, 13878, 13877, 13876
 14048, 14047, 14046, 14045, 14044, 14043, 14042, 14041, 14040, 14039, 14038, 14037, 14036, 14035, 14034, 14033
 14032, 14031, 14030, 14029, 14028, 14027, 14026, 14025, 14024, 14023, 14022, 14021, 14020, 14019, 14018, 14017
 14016, 14015, 14014, 14013, 14012, 14011, 14010, 14009, 14008, 14007, 14006, 14005, 14004, 14003, 14002, 14001
 14173, 14172, 14171, 14170, 14169, 14168, 14167, 14166, 14165, 14164, 14163, 14162, 14161, 14160, 14159, 14158
 14157, 14156, 14155, 14154, 14153, 14152, 14151, 14150, 14149, 14148, 14147, 14146, 14145, 14144, 14143, 14142
 14141, 14140, 14139, 14138, 14137, 14136, 14135, 14134, 14133, 14132, 14131, 14130, 14129, 14128, 14127, 14126
 14298, 14297, 14296, 14295, 14294, 14293, 14292, 14291, 14290, 14289, 14288, 14287, 14286, 14285, 14284, 14283
 14282, 14281, 14280, 14279, 14278, 14277, 14276, 14275, 14274, 14273, 14272, 14271, 14270, 14269, 14268, 14267
 14266, 14265, 14264, 14263, 14262, 14261, 14260, 14259, 14258, 14257, 14256, 14255, 14254, 14253, 14252, 14251
 14423, 14422, 14421, 14420, 14419, 14418, 14417, 14416, 14415, 14414, 14413, 14412, 14411, 14410, 14409, 14408
 14407, 14406, 14405, 14404, 14403, 14402, 14401, 14400, 14399, 14398, 14397, 14396, 14395, 14394, 14393, 14392
 14391, 14390, 14389, 14388, 14387, 14386, 14385, 14384, 14383, 14382, 14381, 14380, 14379, 14378, 14377, 14376
 14548, 14547, 14546, 14545, 14544, 14543, 14542, 14541, 14540, 14539, 14538, 14537, 14536, 14535, 14534, 14533
 14532, 14531, 14530, 14529, 14528, 14527, 14526, 14525, 14524, 14523, 14522, 14521, 14520, 14519, 14518, 14517
 14516, 14515, 14514, 14513, 14512, 14511, 14510, 14509, 14508, 14507, 14506, 14505, 14504, 14503, 14502, 14501
 14673, 14672, 14671, 14670, 14669, 14668, 14667, 14666, 14665, 14664, 14663, 14662, 14661, 14660, 14659, 14658
 14657, 14656, 14655, 14654, 14653, 14652, 14651, 14650, 14649, 14648, 14647, 14646, 14645, 14644, 14643, 14642
 14641, 14640, 14639, 14638, 14637, 14636, 14635, 14634, 14633, 14632, 14631, 14630, 14629, 14628, 14627, 14626
 14798, 14797, 14796, 14795, 14794, 14793, 14792, 14791, 14790, 14789, 14788, 14787, 14786, 14785, 14784, 14783
 14782, 14781, 14780, 14779, 14778, 14777, 14776, 14775, 14774, 14773, 14772, 14771, 14770, 14769, 14768, 14767
 14766, 14765, 14764, 14763, 14762, 14761, 14760, 14759, 14758, 14757, 14756, 14755, 14754, 14753, 14752, 14751
 14923, 14922, 14921, 14920, 14919, 14918, 14917, 14916, 14915, 14914, 14913, 14912, 14911, 14910, 14909, 14908
 14907, 14906, 14905, 14904, 14903, 14902, 14901, 14900, 14899, 14898, 14897, 14896, 14895, 14894, 14893, 14892
 14891, 14890, 14889, 14888, 14887, 14886, 14885, 14884, 14883, 14882, 14881, 14880, 14879, 14878, 14877, 14876
 15048, 15047, 15046, 15045, 15044, 15043, 15042, 15041, 15040, 15039, 15038, 15037, 15036, 15035, 15034, 15033
 15032, 15031, 15030, 15029, 15028, 15027, 15026, 15025, 15024, 15023, 15022, 15021, 15020, 15019, 15018, 15017
 15016, 15015, 15014, 15013, 15012, 15011, 15010, 15009, 15008, 15007, 15006, 15005, 15004, 15003, 15002, 15001
 15173, 15172, 15171, 15170, 15169, 15168, 15167, 15166, 15165, 15164, 15163, 15162, 15161, 15160, 15159, 15158
 15157, 15156, 15155, 15154, 15153, 15152, 15151, 15150, 15149, 15148, 15147, 15146, 15145, 15144, 15143, 15142
 15141, 15140, 15139, 15138, 15137, 15136, 15135, 15134, 15133, 15132, 15131, 15130, 15129, 15128, 15127, 15126
 15298, 15297, 15296, 15295, 15294, 15293, 15292, 15291, 15290, 15289, 15288, 15287, 15286, 15285, 15284, 15283
 15282, 15281, 15280, 15279, 15278, 15277, 15276, 15275, 15274, 15273, 15272, 15271, 15270, 15269, 15268, 15267
 15266, 15265, 15264, 15263, 15262, 15261, 15260, 15259, 15258, 15257, 15256, 15255, 15254, 15253, 15252, 15251
 15423, 15422, 15421, 15420, 15419, 15418, 15417, 15416, 15415, 15414, 15413, 15412, 15411, 15410, 15409, 15408
 15407, 15406, 15405, 15404, 15403, 15402, 15401, 15400, 15399, 15398, 15397, 15396, 15395, 15394, 15393, 15392
 15391, 15390, 15389, 15388, 15387, 15386, 15385, 15384, 15383, 15382, 15381, 15380, 15379, 15378, 15377, 15376
 15548, 15547, 15546, 15545, 15544, 15543, 15542, 15541, 15540, 15539, 15538, 15537, 15536, 15535, 15534, 15533
 15532, 15531, 15530, 15529, 15528, 15527, 15526, 15525, 15524, 15523, 15522, 15521, 15520, 15519, 15518, 15517
 15516, 15515, 15514, 15513, 15512, 15511, 15510, 15509, 15508, 15507, 15506, 15505, 15504, 15503, 15502, 15501
 15673, 15672, 15671, 15670, 15669, 15668, 15667, 15666, 15665, 15664, 15663, 15662, 15661, 15660, 15659, 15658
 15657, 15656, 15655, 15654, 15653, 15652, 15651, 15650, 15649, 15648, 15647, 15646, 15645, 15644, 15643, 15642
 15641, 15640, 15639, 15638, 15637, 15636, 15635, 15634, 15633, 15632, 15631, 15630, 15629, 15628, 15627, 15626
 15798, 15797, 15796, 15795, 15794, 15793, 15792, 15791, 15790, 15789, 15788, 15787, 15786, 15785, 15784, 15783
 15782, 15781, 15780, 15779, 15778, 15777, 15776, 15775, 15774, 15773, 15772, 15771, 15770, 15769, 15768, 15767
 15766, 15765, 15764, 15763, 15762, 15761, 15760, 15759, 15758, 15757, 15756, 15755, 15754, 15753, 15752, 15751
 15923, 15922, 15921, 15920, 15919, 15918, 15917, 15916, 15915, 15914, 15913, 15912, 15911, 15910, 15909, 15908
 15907, 15906, 15905, 15904, 15903, 15902, 15901, 15900, 15899, 15898, 15897, 15896, 15895, 15894, 15893, 15892
 15891, 15890, 15889, 15888, 15887, 15886, 15885, 15884, 15883, 15882, 15881, 15880, 15879, 15878, 15877, 15876
 16048, 16047, 16046, 16045, 16044, 16043, 16042, 16041, 16040, 16039, 16038, 16037, 16036, 16035, 16034, 16033
 16032, 16031, 16030, 16029, 16028, 16027, 16026, 16025, 16024, 16023, 16022, 16021, 16020, 16019, 16018, 16017
 16016, 16015, 16014, 16013, 16012, 16011, 16010, 16009, 16008, 16007, 16006, 16005, 16004, 16003, 16002, 16001
 16173, 16172, 16171, 16170, 16169, 16168, 16167, 16166, 16165, 16164, 16163, 16162, 16161, 16160, 16159, 16158
 16157, 16156, 16155, 16154, 16153, 16152, 16151, 16150, 16149, 16148, 16147, 16146, 16145, 16144, 16143, 16142
 16141, 16140, 16139, 16138, 16137, 16136, 16135, 16134, 16133, 16132, 16131, 16130, 16129, 16128, 16127, 16126
 16298, 16297, 16296, 16295, 16294, 16293, 16292, 16291, 16290, 16289, 16288, 16287, 16286, 16285, 16284, 16283
 16282, 16281, 16280, 16279, 16278, 16277, 16276, 16275, 16274, 16273, 16272, 16271, 16270, 16269, 16268, 16267
 16266, 16265, 16264, 16263, 16262, 16261, 16260, 16259, 16258, 16257, 16256, 16255, 16254, 16253, 16252, 16251
 16423, 16422, 16421, 16420, 16419, 16418, 16417, 16416, 16415, 16414, 16413, 16412, 16411, 16410, 16409, 16408
 16407, 16406, 16405, 16404, 16403, 16402, 16401, 16400, 16399, 16398, 16397, 16396, 16395, 16394, 16393, 16392
 16391, 16390, 16389, 16388, 16387, 16386, 16385, 16384, 16383, 16382, 16381, 16380, 16379, 16378, 16377, 16376
 16548, 16547, 16546, 16545, 16544, 16543, 16542, 16541, 16540, 16539, 16538, 16537, 16536, 16535, 16534, 16533
 16532, 16531, 16530, 16529, 16528, 16527, 16526, 16525, 16524, 16523, 16522, 16521, 16520, 16519, 16518, 16517
 16516, 16515, 16514, 16513, 16512, 16511, 16510, 16509, 16508, 16507, 16506, 16505, 16504, 16503, 16502, 16501
 16673, 16672, 16671, 16670, 16669, 16668, 16667, 16666, 16665, 16664, 16663, 16662, 16661, 16660, 16659, 16658
 16657, 16656, 16655, 16654, 16653, 16652, 16651, 16650, 16649, 16648, 16647, 16646, 16645, 16644, 16643, 16642
 16641, 16640, 16639, 16638, 16637, 16636, 16635, 16634, 16633, 16632, 16631, 16630, 16629, 16628, 16627, 16626
 16798, 16797, 16796, 16795, 16794, 16793, 16792, 16791, 16790, 16789, 16788, 16787, 16786, 16785, 16784, 16783
 16782, 16781, 16780, 16779, 16778, 16777, 16776, 16775, 16774, 16773, 16772, 16771, 16770, 16769, 16768, 16767
 16766, 16765, 16764, 16763, 16762, 16761, 16760, 16759, 16758, 16757, 16756, 16755, 16754, 16753, 16752, 16751
 16923, 16922, 16921, 16920, 16919, 16918, 16917, 16916, 16915, 16914, 16913, 16912, 16911, 16910, 16909, 16908
 16907, 16906, 16905, 16904, 16903, 16902, 16901, 16900, 16899, 16898, 16897, 16896, 16895, 16894, 16893, 16892
 16891, 16890, 16889, 16888, 16887, 16886, 16885, 16884, 16883, 16882, 16881, 16880, 16879, 16878, 16877, 16876
 17048, 17047, 17046, 17045, 17044, 17043, 17042, 17041, 17040, 17039, 17038, 17037, 17036, 17035, 17034, 17033
 17032, 17031, 17030, 17029, 17028, 17027, 17026, 17025, 17024, 17023, 17022, 17021, 17020, 17019, 17018, 17017
 17016, 17015, 17014, 17013, 17012, 17011, 17010, 17009, 17008, 17007, 17006, 17005, 17004, 17003, 17002, 17001
 17173, 17172, 17171, 17170, 17169, 17168, 17167, 17166, 17165, 17164, 17163, 17162, 17161, 17160, 17159, 17158
 17157, 17156, 17155, 17154, 17153, 17152, 17151, 17150, 17149, 17148, 17147, 17146, 17145, 17144, 17143, 17142
 17141, 17140, 17139, 17138, 17137, 17136, 17135, 17134, 17133, 17132, 17131, 17130, 17129, 17128, 17127, 17126
 17298, 17297, 17296, 17295, 17294, 17293, 17292, 17291, 17290, 17289, 17288, 17287, 17286, 17285, 17284, 17283
 17282, 17281, 17280, 17279, 17278, 17277, 17276, 17275, 17274, 17273, 17272, 17271, 17270, 17269, 17268, 17267
 17266, 17265, 17264, 17263, 17262, 17261, 17260, 17259, 17258, 17257, 17256, 17255, 17254, 17253, 17252, 17251
 17423, 17422, 17421, 17420, 17419, 17418, 17417, 17416, 17415, 17414, 17413, 17412, 17411, 17410, 17409, 17408
 17407, 17406, 17405, 17404, 17403, 17402, 17401, 17400, 17399, 17398, 17397, 17396, 17395, 17394, 17393, 17392
 17391, 17390, 17389, 17388, 17387, 17386, 17385, 17384, 17383, 17382, 17381, 17380, 17379, 17378, 17377, 17376
 17548, 17547, 17546, 17545, 17544, 17543, 17542, 17541, 17540, 17539, 17538, 17537, 17536, 17535, 17534, 17533
 17532, 17531, 17530, 17529, 17528, 17527, 17526, 17525, 17524, 17523, 17522, 17521, 17520, 17519, 17518, 17517
 17516, 17515, 17514, 17513, 17512, 17511, 17510, 17509, 17508, 17507, 17506, 17505, 17504, 17503, 17502, 17501
 17673, 17672, 17671, 17670, 17669, 17668, 17667, 17666, 17665, 17664, 17663, 17662, 17661, 17660, 17659, 17658
 17657, 17656, 17655, 17654, 17653, 17652, 17651, 17650, 17649, 17648, 17647, 17646, 17645, 17644, 17643, 17642
 17641, 17640, 17639, 17638, 17637, 17636, 17635, 17634, 17633, 17632, 17631, 17630, 17629, 17628, 17627, 17626
 17798, 17797, 17796, 17795, 17794, 17793, 17792, 17791, 17790, 17789, 17788, 17787, 17786, 17785, 17784, 17783
 17782, 17781, 17780, 17779, 17778, 17777, 17776, 17775, 17774, 17773, 17772, 17771, 17770, 17769, 17768, 17767
 17766, 17765, 17764, 17763, 17762, 17761, 17760, 17759, 17758, 17757, 17756, 17755, 17754, 17753, 17752, 17751
 17923, 17922, 17921, 17920, 17919, 17918, 17917, 17916, 17915, 17914, 17913, 17912, 17911, 17910, 17909, 17908
 17907, 17906, 17905, 17904, 17903, 17902, 17901, 17900, 17899, 17898, 17897, 17896, 17895, 17894, 17893, 17892
 17891, 17890, 17889, 17888, 17887, 17886, 17885, 17884, 17883, 17882, 17881, 17880, 17879, 17878, 17877, 17876
 18048, 18047, 18046, 18045, 18044, 18043, 18042, 18041, 18040, 18039, 18038, 18037, 18036, 18035, 18034, 18033
 18032, 18031, 18030, 18029, 18028, 18027, 18026, 18025, 18024, 18023, 18022, 18021, 18020, 18019, 18018, 18017
 18016, 18015, 18014, 18013, 18012, 18011, 18010, 18009, 18008, 18007, 18006, 18005, 18004, 18003, 18002, 18001
 18173, 18172, 18171, 18170, 18169, 18168, 18167, 18166, 18165, 18164, 18163, 18162, 18161, 18160, 18159, 18158
 18157, 18156, 18155, 18154, 18153, 18152, 18151, 18150, 18149, 18148, 18147, 18146, 18145, 18144, 18143, 18142
 18141, 18140, 18139, 18138, 18137, 18136, 18135, 18134, 18133, 18132, 18131, 18130, 18129, 18128, 18127, 18126
 18298, 18297, 18296, 18295, 18294, 18293, 18292, 18291, 18290, 18289, 18288, 18287, 18286, 18285, 18284, 18283
 18282, 18281, 18280, 18279, 18278, 18277, 18276, 18275, 18274, 18273, 18272, 18271, 18270, 18269, 18268, 18267
 18266, 18265, 18264, 18263, 18262, 18261, 18260, 18259, 18258, 18257, 18256, 18255, 18254, 18253, 18252, 18251
 18423, 18422, 18421, 18420, 18419, 18418, 18417, 18416, 18415, 18414, 18413, 18412, 18411, 18410, 18409, 18408
 18407, 18406, 18405, 18404, 18403, 18402, 18401, 18400, 18399, 18398, 18397, 18396, 18395, 18394, 18393, 18392
 18391, 18390, 18389, 18388, 18387, 18386, 18385, 18384, 18383, 18382, 18381, 18380, 18379, 18378, 18377, 18376
 18548, 18547, 18546, 18545, 18544, 18543, 18542, 18541, 18540, 18539, 18538, 18537, 18536, 18535, 18534, 18533
 18532, 18531, 18530, 18529, 18528, 18527, 18526, 18525, 18524, 18523, 18522, 18521, 18520, 18519, 18518, 18517
 18516, 18515, 18514, 18513, 18512, 18511, 18510, 18509, 18508, 18507, 18506, 18505, 18504, 18503, 18502, 18501
 18673, 18672, 18671, 18670, 18669, 18668, 18667, 18666, 18665, 18664, 18663, 18662, 18661, 18660, 18659, 18658
 18657, 18656, 18655, 18654, 18653, 18652, 18651, 18650, 18649, 18648, 18647, 18646, 18645, 18644, 18643, 18642
 18641, 18640, 18639, 18638, 18637, 18636, 18635, 18634, 18633, 18632, 18631, 18630, 18629, 18628, 18627, 18626
 18798, 18797, 18796, 18795, 18794, 18793, 18792, 18791, 18790, 18789, 18788, 18787, 18786, 18785, 18784, 18783
 18782, 18781, 18780, 18779, 18778, 18777, 18776, 18775, 18774, 18773, 18772, 18771, 18770, 18769, 18768, 18767
 18766, 18765, 18764, 18763, 18762, 18761, 18760, 18759, 18758, 18757, 18756, 18755, 18754, 18753, 18752, 18751
 18923, 18922, 18921, 18920, 18919, 18918, 18917, 18916, 18915, 18914, 18913, 18912, 18911, 18910, 18909, 18908
 18907, 18906, 18905, 18904, 18903, 18902, 18901, 18900, 18899, 18898, 18897, 18896, 18895, 18894, 18893, 18892
 18891, 18890, 18889, 18888, 18887, 18886, 18885, 18884, 18883, 18882, 18881, 18880, 18879, 18878, 18877, 18876
 19048, 19047, 19046, 19045, 19044, 19043, 19042, 19041, 19040, 19039, 19038, 19037, 19036, 19035, 19034, 19033
 19032, 19031, 19030, 19029, 19028, 19027, 19026, 19025, 19024, 19023, 19022, 19021, 19020, 19019, 19018, 19017
 19016, 19015, 19014, 19013, 19012, 19011, 19010, 19009, 19008, 19007, 19006, 19005, 19004, 19003, 19002, 19001
 19173, 19172, 19171, 19170, 19169, 19168, 19167, 19166, 19165, 19164, 19163, 19162, 19161, 19160, 19159, 19158
 19157, 19156, 19155, 19154, 19153, 19152, 19151, 19150, 19149, 19148, 19147, 19146, 19145, 19144, 19143, 19142
 19141, 19140, 19139, 19138, 19137, 19136, 19135, 19134, 19133, 19132, 19131, 19130, 19129, 19128, 19127, 19126
 19298, 19297, 19296, 19295, 19294, 19293, 19292, 19291, 19290, 19289, 19288, 19287, 19286, 19285, 19284, 19283
 19282, 19281, 19280, 19279, 19278, 19277, 19276, 19275, 19274, 19273, 19272, 19271, 19270, 19269, 19268, 19267
 19266, 19265, 19264, 19263, 19262, 19261, 19260, 19259, 19258, 19257, 19256, 19255, 19254, 19253, 19252, 19251
 19423, 19422, 19421, 19420, 19419, 19418, 19417, 19416, 19415, 19414, 19413, 19412, 19411, 19410, 19409, 19408
 19407, 19406, 19405, 19404, 19403, 19402, 19401, 19400, 19399, 19398, 19397, 19396, 19395, 19394, 19393, 19392
 19391, 19390, 19389, 19388, 19387, 19386, 19385, 19384, 19383, 19382, 19381, 19380, 19379, 19378, 19377, 19376
 19548, 19547, 19546, 19545, 19544, 19543, 19542, 19541, 19540, 19539, 19538, 19537, 19536, 19535, 19534, 19533
 19532, 19531, 19530, 19529, 19528, 19527, 19526, 19525, 19524, 19523, 19522, 19521, 19520, 19519, 19518, 19517
 19516, 19515, 19514, 19513, 19512, 19511, 19510, 19509, 19508, 19507, 19506, 19505, 19504, 19503, 19502, 19501
 19673, 19672, 19671, 19670, 19669, 19668, 19667, 19666, 19665, 19664, 19663, 19662, 19661, 19660, 19659, 19658
 19657, 19656, 19655, 19654, 19653, 19652, 19651, 19650, 19649, 19648, 19647, 19646, 19645, 19644, 19643, 19642
 19641, 19640, 19639, 19638, 19637, 19636, 19635, 19634, 19633, 19632, 19631, 19630, 19629, 19628, 19627, 19626
 19798, 19797, 19796, 19795, 19794, 19793, 19792, 19791, 19790, 19789, 19788, 19787, 19786, 19785, 19784, 19783
 19782, 19781, 19780, 19779, 19778, 19777, 19776, 19775, 19774, 19773, 19772, 19771, 19770, 19769, 19768, 19767
 19766, 19765, 19764, 19763, 19762, 19761, 19760, 19759, 19758, 19757, 19756, 19755, 19754, 19753, 19752, 19751
 19923, 19922, 19921, 19920, 19919, 19918, 19917, 19916, 19915, 19914, 19913, 19912, 19911, 19910, 19909, 19908
 19907, 19906, 19905, 19904, 19903, 19902, 19901, 19900, 19899, 19898, 19897, 19896, 19895, 19894, 19893, 19892
 19891, 19890, 19889, 19888, 19887, 19886, 19885, 19884, 19883, 19882, 19881, 19880, 19879, 19878, 19877, 19876
 20048, 20047, 20046, 20045, 20044, 20043, 20042, 20041, 20040, 20039, 20038, 20037, 20036, 20035, 20034, 20033
 20032, 20031, 20030, 20029, 20028, 20027, 20026, 20025, 20024, 20023, 20022, 20021, 20020, 20019, 20018, 20017
 20016, 20015, 20014, 20013, 20012, 20011, 20010, 20009, 20008, 20007, 20006, 20005, 20004, 20003, 20002, 20001
 20173, 20172, 20171, 20170, 20169, 20168, 20167, 20166, 20165, 20164, 20163, 20162, 20161, 20160, 20159, 20158
 20157, 20156, 20155, 20154, 20153, 20152, 20151, 20150, 20149, 20148, 20147, 20146, 20145, 20144, 20143, 20142
 20141, 20140, 20139, 20138, 20137, 20136, 20135, 20134, 20133, 20132, 20131, 20130, 20129, 20128, 20127, 20126
 20298, 20297, 20296, 20295, 20294, 20293, 20292, 20291, 20290, 20289, 20288, 20287, 20286, 20285, 20284, 20283
 20282, 20281, 20280, 20279, 20278, 20277, 20276, 20275, 20274, 20273, 20272, 20271, 20270, 20269, 20268, 20267
 20266, 20265, 20264, 20263, 20262, 20261, 20260, 20259, 20258, 20257, 20256, 20255, 20254, 20253, 20252, 20251
 20423, 20422, 20421, 20420, 20419, 20418, 20417, 20416, 20415, 20414, 20413, 20412, 20411, 20410, 20409, 20408
 20407, 20406, 20405, 20404, 20403, 20402, 20401, 20400, 20399, 20398, 20397, 20396, 20395, 20394, 20393, 20392
 20391, 20390, 20389, 20388, 20387, 20386, 20385, 20384, 20383, 20382, 20381, 20380, 20379, 20378, 20377, 20376